<event>
 4    1  0.3196149E-002  0.3606607E+03  0.7818608E-02  0.1058323E+00
         -3   -1    0    0    0  501 -0.00000000000E+00  0.00000000000E+00  0.95914926547E+02  0.95914926547E+02  0.00000000000E+00 0.  1.
          3   -1    0    0  502    0  0.00000000000E+00 -0.00000000000E+00 -0.13911157324E+04  0.13911157324E+04  0.00000000000E+00 0. -1.
          6    1    1    2  502    0  0.44926246922E+02  0.31380534706E+03 -0.76545758507E+03  0.84616870542E+03  0.17200000000E+03 0. -1.
         -6    1    1    2    0  501 -0.44926246922E+02 -0.31380534706E+03 -0.52974322079E+03  0.64086195353E+03  0.17200000000E+03 0.  1.
</event>
<event>
 4    1  0.3196149E-002  0.1998793E+03  0.7818608E-02  0.1149841E+00
         -1   -1    0    0    0  501 -0.00000000000E+00  0.00000000000E+00  0.52286579185E+03  0.52286579185E+03  0.00000000000E+00 0.  1.
          1   -1    0    0  502    0  0.00000000000E+00 -0.00000000000E+00 -0.79668950184E+02  0.79668950184E+02  0.00000000000E+00 0. -1.
          6    1    1    2  502    0  0.96985356916E+02 -0.31009361636E+02  0.16065850326E+03  0.25644277068E+03  0.17200000000E+03 0. -1.
         -6    1    1    2    0  501 -0.96985356916E+02  0.31009361636E+02  0.28253833840E+03  0.34609197135E+03  0.17200000000E+03 0.  1.
</event>
<event>
 4    1  0.3196149E-002  0.1980106E+03  0.7818608E-02  0.1151428E+00
          1   -1    0    0  502    0  0.00000000000E+00  0.00000000000E+00  0.72842273534E+03  0.72842273534E+03  0.00000000000E+00 0. -1.
         -1   -1    0    0    0  501 -0.00000000000E+00 -0.00000000000E+00 -0.55347052308E+02  0.55347052308E+02  0.00000000000E+00 0.  1.
          6    1    1    2  502    0 -0.47155243101E+02  0.86026696139E+02  0.40149969522E+03  0.44767199450E+03  0.17200000000E+03 0. -1.
         -6    1    1    2    0  501  0.47155243101E+02 -0.86026696139E+02  0.27157598781E+03  0.33609779314E+03  0.17200000000E+03 0.  1.
</event>
<event>
 4    1  0.3196149E-002  0.2283135E+03  0.7818608E-02  0.1127832E+00
         -2   -1    0    0    0  501 -0.00000000000E+00  0.00000000000E+00  0.81744202290E+03  0.81744202290E+03  0.00000000000E+00 0.  1.
          2   -1    0    0  502    0  0.00000000000E+00 -0.00000000000E+00 -0.63958578018E+02  0.63958578018E+02  0.00000000000E+00 0. -1.
          6    1    1    2  502    0 -0.14992603246E+03  0.80760507979E+01  0.35271584687E+03  0.42016128622E+03  0.17200000000E+03 0.  1.
         -6    1    1    2    0  501  0.14992603246E+03 -0.80760507979E+01  0.40076759801E+03  0.46123931470E+03  0.17200000000E+03 0. -1.
</event>
<event>
 4    1  0.3196149E-002  0.1995689E+03  0.7818608E-02  0.1150103E+00
          2   -1    0    0  502    0  0.00000000000E+00  0.00000000000E+00  0.19502943206E+04  0.19502943206E+04  0.00000000000E+00 0. -1.
         -2   -1    0    0    0  501 -0.00000000000E+00 -0.00000000000E+00 -0.24755691133E+02  0.24755691133E+02  0.00000000000E+00 0.  1.
          6    1    1    2  502    0 -0.34396098494E+02  0.95187562206E+02  0.13759775979E+04  0.13903748104E+04  0.17200000000E+03 0. -1.
         -6    1    1    2    0  501  0.34396098494E+02 -0.95187562206E+02  0.54956103162E+03  0.58467520134E+03  0.17200000000E+03 0.  1.
</event>
<event>
 4    1  0.3196149E-002  0.2968198E+03  0.7818608E-02  0.1086841E+00
          1   -1    0    0  502    0  0.00000000000E+00  0.00000000000E+00  0.19239414510E+03  0.19239414510E+03  0.00000000000E+00 0. -1.
         -1   -1    0    0    0  501 -0.00000000000E+00 -0.00000000000E+00 -0.46897480405E+03  0.46897480405E+03  0.00000000000E+00 0.  1.
          6    1    1    2  502    0 -0.21714978030E+03  0.10660199739E+03 -0.87530039122E+02  0.30945681553E+03  0.17200000000E+03 0. -1.
         -6    1    1    2    0  501  0.21714978030E+03 -0.10660199739E+03 -0.18905061983E+03  0.35191213362E+03  0.17200000000E+03 0.  1.
</event>
<event>
 4    1  0.3196149E-002  0.1786694E+03  0.7818608E-02  0.1169097E+00
          2   -1    0    0  502    0  0.00000000000E+00  0.00000000000E+00  0.19695614392E+04  0.19695614392E+04  0.00000000000E+00 0. -1.
         -2   -1    0    0    0  501 -0.00000000000E+00 -0.00000000000E+00 -0.30547695968E+02  0.30547695968E+02  0.00000000000E+00 0.  1.
          6    1    1    2  502    0  0.19462139780E+02 -0.44271587678E+02  0.16546853250E+04  0.16643035399E+04  0.17200000000E+03 0. -1.
         -6    1    1    2    0  501 -0.19462139780E+02  0.44271587678E+02  0.28432841827E+03  0.33580559524E+03  0.17200000000E+03 0.  1.
</event>
<event>
 4    1  0.3196149E-002  0.2120091E+03  0.7818608E-02  0.1139985E+00
         -1   -1    0    0    0  501 -0.00000000000E+00  0.00000000000E+00  0.17173689656E+03  0.17173689656E+03  0.00000000000E+00 0.  1.
          1   -1    0    0  502    0  0.00000000000E+00 -0.00000000000E+00 -0.26313868969E+03  0.26313868969E+03  0.00000000000E+00 0. -1.
          6    1    1    2  502    0 -0.79914612484E+02 -0.94749778247E+02 -0.29764284278E+02  0.21408824906E+03  0.17200000000E+03 0. -1.
         -6    1    1    2    0  501  0.79914612484E+02  0.94749778247E+02 -0.61637508850E+02  0.22078733719E+03  0.17200000000E+03 0.  1.
</event>
<event>
 4    1  0.3196149E-002  0.3537302E+03  0.7818608E-02  0.1061094E+00
          2   -1    0    0  502    0  0.00000000000E+00  0.00000000000E+00  0.11702726834E+04  0.11702726834E+04  0.00000000000E+00 0. -1.
         -2   -1    0    0    0  501 -0.00000000000E+00 -0.00000000000E+00 -0.18267037342E+03  0.18267037342E+03  0.00000000000E+00 0.  1.
          6    1    1    2  502    0  0.67577911377E+01 -0.30902325067E+03  0.92942247079E+03  0.99446023873E+03  0.17200000000E+03 0. -1.
         -6    1    1    2    0  501 -0.67577911377E+01  0.30902325067E+03  0.58179839221E+02  0.35848281812E+03  0.17200000000E+03 0.  1.
</event>
<event>
 4    1  0.3196149E-002  0.2500179E+03  0.7818608E-02  0.1113294E+00
         -1   -1    0    0    0  501 -0.00000000000E+00  0.00000000000E+00  0.28022015626E+03  0.28022015626E+03  0.00000000000E+00 0.  1.
          1   -1    0    0  502    0  0.00000000000E+00 -0.00000000000E+00 -0.23642817982E+03  0.23642817982E+03  0.00000000000E+00 0. -1.
          6    1    1    2  502    0 -0.52466260569E+02  0.17370154438E+03  0.83297070176E+02  0.26352862637E+03  0.17200000000E+03 0. -1.
         -6    1    1    2    0  501  0.52466260569E+02 -0.17370154438E+03 -0.39505093736E+02  0.25311970972E+03  0.17200000000E+03 0.  1.
</event>
<event>
 4    1  0.3196149E-002  0.1921753E+03  0.7818608E-02  0.1156514E+00
         -2   -1    0    0    0  501 -0.00000000000E+00  0.00000000000E+00  0.27586114666E+02  0.27586114666E+02  0.00000000000E+00 0.  1.
          2   -1    0    0  502    0  0.00000000000E+00 -0.00000000000E+00 -0.24293908399E+04  0.24293908399E+04  0.00000000000E+00 0. -1.
          6    1    1    2  502    0 -0.75228121621E+02  0.41086147913E+02 -0.20240166899E+04  0.20331195003E+04  0.17200000000E+03 0. -1.
         -6    1    1    2    0  501  0.75228121621E+02 -0.41086147913E+02 -0.37778803540E+03  0.42385745425E+03  0.17200000000E+03 0.  1.
</event>
<event>
 4    1  0.3196149E-002  0.4281815E+03  0.7818608E-02  0.1034436E+00
          2   -1    0    0  502    0  0.00000000000E+00  0.00000000000E+00  0.15815033336E+04  0.15815033336E+04  0.00000000000E+00 0. -1.
         -2   -1    0    0    0  501 -0.00000000000E+00 -0.00000000000E+00 -0.22695174382E+03  0.22695174382E+03  0.00000000000E+00 0.  1.
          6    1    1    2  502    0  0.25609319280E+03  0.29693722108E+03  0.13097171193E+04  0.13779326432E+04  0.17200000000E+03 0. -1.
         -6    1    1    2    0  501 -0.25609319280E+03 -0.29693722108E+03  0.44834470551E+02  0.43052243427E+03  0.17200000000E+03 0.  1.
</event>
<event>
 4    1  0.3196149E-002  0.1863661E+03  0.7818608E-02  0.1161780E+00
          1   -1    0    0  502    0  0.00000000000E+00  0.00000000000E+00  0.20352383917E+03  0.20352383917E+03  0.00000000000E+00 0. -1.
         -1   -1    0    0    0  501 -0.00000000000E+00 -0.00000000000E+00 -0.17090009761E+03  0.17090009761E+03  0.00000000000E+00 0.  1.
          6    1    1    2  502    0  0.48725204632E+02  0.52670377527E+02  0.23404944587E+02  0.18782999139E+03  0.17200000000E+03 0. -1.
         -6    1    1    2    0  501 -0.48725204632E+02 -0.52670377527E+02  0.92187969728E+01  0.18659394538E+03  0.17200000000E+03 0.  1.
</event>
<event>
 4    1  0.3196149E-002  0.2568959E+03  0.7818608E-02  0.1109023E+00
          2   -1    0    0  502    0  0.00000000000E+00  0.00000000000E+00  0.14884545203E+04  0.14884545203E+04  0.00000000000E+00 0. -1.
         -2   -1    0    0    0  501 -0.00000000000E+00 -0.00000000000E+00 -0.44375080599E+02  0.44375080599E+02  0.00000000000E+00 0.  1.
          6    1    1    2  502    0 -0.16488405161E+03  0.96045614258E+02  0.69996817027E+03  0.74562118390E+03  0.17200000000E+03 0. -1.
         -6    1    1    2    0  501  0.16488405161E+03 -0.96045614258E+02  0.74411126939E+03  0.78720841695E+03  0.17200000000E+03 0.  1.
</event>
<event>
 4    1  0.3196149E-002  0.1971963E+03  0.7818608E-02  0.1152126E+00
          2   -1    0    0  502    0  0.00000000000E+00  0.00000000000E+00  0.22729283315E+04  0.22729283315E+04  0.00000000000E+00 0. -1.
         -2   -1    0    0    0  501 -0.00000000000E+00 -0.00000000000E+00 -0.17469482289E+02  0.17469482289E+02  0.00000000000E+00 0.  1.
          6    1    1    2  502    0 -0.60572275323E+02 -0.75055723793E+02  0.96310572295E+03  0.98308646405E+03  0.17200000000E+03 0.  1.
         -6    1    1    2    0  501  0.60572275323E+02  0.75055723793E+02  0.12923531262E+04  0.13073113497E+04  0.17200000000E+03 0.  1.
</event>
<event>
 4    1  0.3196149E-002  0.2452047E+03  0.7818608E-02  0.1116373E+00
          1   -1    0    0  502    0  0.00000000000E+00  0.00000000000E+00  0.20633999295E+04  0.20633999295E+04  0.00000000000E+00 0. -1.
         -1   -1    0    0    0  501 -0.00000000000E+00 -0.00000000000E+00 -0.30651832040E+02  0.30651832040E+02  0.00000000000E+00 0.  1.
          6    1    1    2  502    0 -0.13151243177E+03  0.11509052711E+03  0.12489842873E+04  0.12728264214E+04  0.17200000000E+03 0. -1.
         -6    1    1    2    0  501  0.13151243177E+03 -0.11509052711E+03  0.78376381018E+03  0.82122534014E+03  0.17200000000E+03 0. -1.
</event>
<event>
 4    1  0.3196149E-002  0.2643844E+03  0.7818608E-02  0.1104537E+00
         -2   -1    0    0    0  501 -0.00000000000E+00  0.00000000000E+00  0.52008369955E+02  0.52008369955E+02  0.00000000000E+00 0.  1.
          2   -1    0    0  502    0  0.00000000000E+00 -0.00000000000E+00 -0.16563035011E+04  0.16563035011E+04  0.00000000000E+00 0. -1.
          6    1    1    2  502    0  0.19739302436E+03  0.36757410310E+02 -0.11730480897E+04  0.12024728413E+04  0.17200000000E+03 0. -1.
         -6    1    1    2    0  501 -0.19739302436E+03 -0.36757410310E+02 -0.43124704142E+03  0.50583902974E+03  0.17200000000E+03 0.  1.
</event>
<event>
 4    1  0.3196149E-002  0.2603957E+03  0.7818608E-02  0.1106906E+00
          2   -1    0    0  502    0  0.00000000000E+00  0.00000000000E+00  0.12048672096E+03  0.12048672096E+03  0.00000000000E+00 0. -1.
         -2   -1    0    0    0  501 -0.00000000000E+00 -0.00000000000E+00 -0.99960028689E+03  0.99960028689E+03  0.00000000000E+00 0.  1.
          6    1    1    2  502    0 -0.19550141141E+03 -0.10497966035E+01 -0.69331023805E+02  0.26946742809E+03  0.17200000000E+03 0. -1.
         -6    1    1    2    0  501  0.19550141141E+03  0.10497966035E+01 -0.80978254212E+03  0.85061957976E+03  0.17200000000E+03 0.  1.
</event>
<event>
 4    1  0.3196149E-002  0.2352262E+03  0.7818608E-02  0.1123014E+00
         -2   -1    0    0    0  501 -0.00000000000E+00  0.00000000000E+00  0.27455935755E+03  0.27455935755E+03  0.00000000000E+00 0.  1.
          2   -1    0    0  502    0  0.00000000000E+00 -0.00000000000E+00 -0.89324051611E+03  0.89324051611E+03  0.00000000000E+00 0. -1.
          6    1    1    2  502    0 -0.46863164366E+02  0.15346399761E+03 -0.82316777655E+03  0.85611713164E+03  0.17200000000E+03 0. -1.
         -6    1    1    2    0  501  0.46863164366E+02 -0.15346399761E+03  0.20448661798E+03  0.31168274202E+03  0.17200000000E+03 0.  1.
</event>
<event>
 4    1  0.3196149E-002  0.2002879E+03  0.7818608E-02  0.1149496E+00
          2   -1    0    0  502    0  0.00000000000E+00  0.00000000000E+00  0.24678751919E+03  0.24678751919E+03  0.00000000000E+00 0. -1.
         -2   -1    0    0    0  501 -0.00000000000E+00 -0.00000000000E+00 -0.19875111802E+03  0.19875111802E+03  0.00000000000E+00 0.  1.
          6    1    1    2  502    0 -0.67834494753E+02 -0.77004796451E+02  0.11909244612E+03  0.23301988773E+03  0.17200000000E+03 0. -1.
         -6    1    1    2    0  501  0.67834494753E+02  0.77004796451E+02 -0.71056044951E+02  0.21251874948E+03  0.17200000000E+03 0. -1.
</event>
<event>
 4    1  0.3196149E-002  0.3503836E+03  0.7818608E-02  0.1062458E+00
          2   -1    0    0  502    0  0.00000000000E+00  0.00000000000E+00  0.12452609226E+04  0.12452609226E+04  0.00000000000E+00 0. -1.
         -2   -1    0    0    0  501 -0.00000000000E+00 -0.00000000000E+00 -0.11204562473E+03  0.11204562473E+03  0.00000000000E+00 0.  1.
          6    1    1    2  502    0 -0.23385827381E+03 -0.19620130458E+03  0.80180019633E+03  0.87501554214E+03  0.17200000000E+03 0. -1.
         -6    1    1    2    0  501  0.23385827381E+03  0.19620130458E+03  0.33141510150E+03  0.48229100515E+03  0.17200000000E+03 0.  1.
</event>
<event>
 4    1  0.3196149E-002  0.1223081E+04  0.7818608E-02  0.9092890E-01
          2   -1    0    0  502    0  0.00000000000E+00  0.00000000000E+00  0.14563483880E+04  0.14563483880E+04  0.00000000000E+00 0. -1.
         -2   -1    0    0    0  501 -0.00000000000E+00 -0.00000000000E+00 -0.13851700502E+04  0.13851700502E+04  0.00000000000E+00 0.  1.
          6    1    1    2  502    0 -0.68673904027E+03 -0.99736302827E+03  0.75787027502E+03  0.14388519289E+04  0.17200000000E+03 0. -1.
         -6    1    1    2    0  501  0.68673904027E+03  0.99736302827E+03 -0.68669193728E+03  0.14026665093E+04  0.17200000000E+03 0.  1.
</event>
<event>
 4    1  0.3196149E-002  0.2381160E+03  0.7818608E-02  0.1121054E+00
         -2   -1    0    0    0  501 -0.00000000000E+00  0.00000000000E+00  0.38380182775E+02  0.38380182775E+02  0.00000000000E+00 0.  1.
          2   -1    0    0  502    0  0.00000000000E+00 -0.00000000000E+00 -0.16822369686E+04  0.16822369686E+04  0.00000000000E+00 0. -1.
          6    1    1    2  502    0 -0.11071893667E+03 -0.12188745526E+03 -0.11222008899E+04  0.11471852823E+04  0.17200000000E+03 0. -1.
         -6    1    1    2    0  501  0.11071893667E+03  0.12188745526E+03 -0.52165589590E+03  0.57343186902E+03  0.17200000000E+03 0.  1.
</event>
<event>
 4    1  0.3196149E-002  0.3120386E+03  0.7818608E-02  0.1079373E+00
          2   -1    0    0  502    0  0.00000000000E+00  0.00000000000E+00  0.32456566726E+04  0.32456566726E+04  0.00000000000E+00 0. -1.
         -2   -1    0    0    0  501 -0.00000000000E+00 -0.00000000000E+00 -0.32202449743E+02  0.32202449743E+02  0.00000000000E+00 0.  1.
          6    1    1    2  502    0  0.11456573669E+02  0.26010157548E+03  0.11780621690E+04  0.12186872268E+04  0.17200000000E+03 0. -1.
         -6    1    1    2    0  501 -0.11456573669E+02 -0.26010157548E+03  0.20353920538E+04  0.20591718955E+04  0.17200000000E+03 0.  1.
</event>
<event>
 4    1  0.3196149E-002  0.2310384E+03  0.7818608E-02  0.1125911E+00
         -1   -1    0    0    0  501 -0.00000000000E+00  0.00000000000E+00  0.10810527357E+03  0.10810527357E+03  0.00000000000E+00 0.  1.
          1   -1    0    0  502    0  0.00000000000E+00 -0.00000000000E+00 -0.11485616644E+04  0.11485616644E+04  0.00000000000E+00 0. -1.
          6    1    1    2  502    0 -0.14850678237E+03  0.41719112822E+02 -0.99465127609E+03  0.10211316809E+04  0.17200000000E+03 0. -1.
         -6    1    1    2    0  501  0.14850678237E+03 -0.41719112822E+02 -0.45805114775E+02  0.23553525707E+03  0.17200000000E+03 0.  1.
</event>
<event>
 4    1  0.3196149E-002  0.1784018E+03  0.7818608E-02  0.1169359E+00
          2   -1    0    0  502    0  0.00000000000E+00  0.00000000000E+00  0.27535697106E+03  0.27535697106E+03  0.00000000000E+00 0. -1.
         -2   -1    0    0    0  501 -0.00000000000E+00 -0.00000000000E+00 -0.12317272429E+03  0.12317272429E+03  0.00000000000E+00 0.  1.
          6    1    1    2  502    0  0.93429082904E+01 -0.46431958085E+02  0.12554832440E+03  0.21815040322E+03  0.17200000000E+03 0. -1.
         -6    1    1    2    0  501 -0.93429082904E+01  0.46431958085E+02  0.26635922379E+02  0.18037929213E+03  0.17200000000E+03 0.  1.
</event>
<event>
 4    1  0.3196149E-002  0.2293960E+03  0.7818608E-02  0.1127066E+00
          2   -1    0    0  502    0  0.00000000000E+00  0.00000000000E+00  0.11112481009E+04  0.11112481009E+04  0.00000000000E+00 0. -1.
         -2   -1    0    0    0  501 -0.00000000000E+00 -0.00000000000E+00 -0.55978105156E+02  0.55978105156E+02  0.00000000000E+00 0.  1.
          6    1    1    2  502    0  0.92359832337E+02 -0.12044994705E+03  0.75670169346E+03  0.79070853117E+03  0.17200000000E+03 0. -1.
         -6    1    1    2    0  501 -0.92359832337E+02  0.12044994705E+03  0.29856830227E+03  0.37651767488E+03  0.17200000000E+03 0.  1.
</event>
<event>
 4    1  0.3196149E-002  0.3813508E+03  0.7818608E-02  0.1050436E+00
          2   -1    0    0  502    0  0.00000000000E+00  0.00000000000E+00  0.23037326383E+04  0.23037326383E+04  0.00000000000E+00 0. -1.
         -2   -1    0    0    0  501 -0.00000000000E+00 -0.00000000000E+00 -0.63541182944E+02  0.63541182944E+02  0.00000000000E+00 0.  1.
          6    1    1    2  502    0  0.63241750141E+01  0.34030051668E+03  0.10245687373E+04  0.10932380958E+04  0.17200000000E+03 0. -1.
         -6    1    1    2    0  501 -0.63241750141E+01 -0.34030051668E+03  0.12156227181E+04  0.12740357254E+04  0.17200000000E+03 0.  1.
</event>
<event>
 4    1  0.3196149E-002  0.2148532E+03  0.7818608E-02  0.1137779E+00
         -2   -1    0    0    0  501 -0.00000000000E+00  0.00000000000E+00  0.12262062296E+03  0.12262062296E+03  0.00000000000E+00 0.  1.
          2   -1    0    0  502    0  0.00000000000E+00 -0.00000000000E+00 -0.44824948374E+03  0.44824948374E+03  0.00000000000E+00 0. -1.
          6    1    1    2  502    0  0.92920373583E+02  0.89127429150E+02 -0.27704293695E+03  0.35059190431E+03  0.17200000000E+03 0. -1.
         -6    1    1    2    0  501 -0.92920373583E+02 -0.89127429150E+02 -0.48585923830E+02  0.22027820239E+03  0.17200000000E+03 0.  1.
</event>
<event>
 4    1  0.3196149E-002  0.2043605E+03  0.7818608E-02  0.1146111E+00
          2   -1    0    0  502    0  0.00000000000E+00  0.00000000000E+00  0.87590596722E+02  0.87590596722E+02  0.00000000000E+00 0. -1.
         -2   -1    0    0    0  501 -0.00000000000E+00 -0.00000000000E+00 -0.54006438180E+03  0.54006438180E+03  0.00000000000E+00 0.  1.
          6    1    1    2  502    0 -0.95370836241E+02 -0.55530346525E+02 -0.33364748040E+03  0.39125932189E+03  0.17200000000E+03 0.  1.
         -6    1    1    2    0  501  0.95370836241E+02  0.55530346525E+02 -0.11882630468E+03  0.23639565663E+03  0.17200000000E+03 0.  1.
</event>
<event>
 4    1  0.3196149E-002  0.3078557E+03  0.7818608E-02  0.1081378E+00
          2   -1    0    0  502    0  0.00000000000E+00  0.00000000000E+00  0.23042445457E+04  0.23042445457E+04  0.00000000000E+00 0. -1.
         -2   -1    0    0    0  501 -0.00000000000E+00 -0.00000000000E+00 -0.17123286541E+03  0.17123286541E+03  0.00000000000E+00 0.  1.
          6    1    1    2  502    0 -0.21444187763E+03  0.13858505709E+03  0.21453971915E+04  0.21673726598E+04  0.17200000000E+03 0. -1.
         -6    1    1    2    0  501  0.21444187763E+03 -0.13858505709E+03 -0.12385511196E+02  0.30810475137E+03  0.17200000000E+03 0.  1.
</event>
<event>
 4    1  0.3196149E-002  0.4304406E+03  0.7818608E-02  0.1033721E+00
         -2   -1    0    0    0  501 -0.00000000000E+00  0.00000000000E+00  0.12756147787E+03  0.12756147787E+03  0.00000000000E+00 0.  1.
          2   -1    0    0  502    0  0.00000000000E+00 -0.00000000000E+00 -0.42642068858E+04  0.42642068858E+04  0.00000000000E+00 0. -1.
          6    1    1    2  502    0 -0.39353059661E+03 -0.28788943380E+02 -0.38514308658E+04  0.38754095071E+04  0.17200000000E+03 0. -1.
         -6    1    1    2    0  501  0.39353059661E+03  0.28788943380E+02 -0.28521454218E+03  0.51635885661E+03  0.17200000000E+03 0.  1.
</event>
<event>
 4    1  0.3196149E-002  0.1778399E+03  0.7818608E-02  0.1169910E+00
         -2   -1    0    0    0  501 -0.00000000000E+00  0.00000000000E+00  0.32631675296E+02  0.32631675296E+02  0.00000000000E+00 0.  1.
          2   -1    0    0  502    0  0.00000000000E+00 -0.00000000000E+00 -0.10613607729E+04  0.10613607729E+04  0.00000000000E+00 0. -1.
          6    1    1    2  502    0 -0.34337384940E+02 -0.29393444685E+02 -0.67553899822E+03  0.69855563036E+03  0.17200000000E+03 0. -1.
         -6    1    1    2    0  501  0.34337384940E+02  0.29393444685E+02 -0.35319009938E+03  0.39543681783E+03  0.17200000000E+03 0. -1.
</event>
<event>
 4    1  0.3196149E-002  0.3105901E+03  0.7818608E-02  0.1080063E+00
          2   -1    0    0  502    0  0.00000000000E+00  0.00000000000E+00  0.48599194947E+03  0.48599194947E+03  0.00000000000E+00 0. -1.
         -2   -1    0    0    0  501 -0.00000000000E+00 -0.00000000000E+00 -0.20925572103E+03  0.20925572103E+03  0.00000000000E+00 0.  1.
          6    1    1    2  502    0 -0.18734067181E+03 -0.17828541804E+03  0.21720380646E+03  0.37900357669E+03  0.17200000000E+03 0. -1.
         -6    1    1    2    0  501  0.18734067181E+03  0.17828541804E+03  0.59532421988E+02  0.31624409381E+03  0.17200000000E+03 0.  1.
</event>
<event>
 4    1  0.3196149E-002  0.1896844E+03  0.7818608E-02  0.1158746E+00
         -2   -1    0    0    0  501 -0.00000000000E+00  0.00000000000E+00  0.17234106343E+02  0.17234106343E+02  0.00000000000E+00 0.  1.
          2   -1    0    0  502    0  0.00000000000E+00 -0.00000000000E+00 -0.21612791400E+04  0.21612791400E+04  0.00000000000E+00 0. -1.
          6    1    1    2  502    0  0.78587040030E+02  0.14840212532E+02 -0.12729616929E+04  0.12870165603E+04  0.17200000000E+03 0. -1.
         -6    1    1    2    0  501 -0.78587040030E+02 -0.14840212532E+02 -0.87108334073E+03  0.89149668607E+03  0.17200000000E+03 0.  1.
</event>
<event>
 4    1  0.3196149E-002  0.2063044E+03  0.7818608E-02  0.1144526E+00
         -1   -1    0    0    0  501 -0.00000000000E+00  0.00000000000E+00  0.18146820431E+02  0.18146820431E+02  0.00000000000E+00 0.  1.
          1   -1    0    0  502    0  0.00000000000E+00 -0.00000000000E+00 -0.27821459007E+04  0.27821459007E+04  0.00000000000E+00 0. -1.
          6    1    1    2  502    0  0.94867341515E+02 -0.63069109481E+02 -0.19367512628E+04  0.19477081349E+04  0.17200000000E+03 0. -1.
         -6    1    1    2    0  501 -0.94867341515E+02  0.63069109481E+02 -0.82724781747E+03  0.85258458617E+03  0.17200000000E+03 0. -1.
</event>
<event>
 4    1  0.3196149E-002  0.2333502E+03  0.7818608E-02  0.1124304E+00
          2   -1    0    0  502    0  0.00000000000E+00  0.00000000000E+00  0.19854101464E+04  0.19854101464E+04  0.00000000000E+00 0. -1.
         -2   -1    0    0    0  501 -0.00000000000E+00 -0.00000000000E+00 -0.29139952835E+02  0.29139952835E+02  0.00000000000E+00 0.  1.
          6    1    1    2  502    0 -0.11723058972E+02  0.15726052935E+03  0.12224076408E+04  0.12444809136E+04  0.17200000000E+03 0. -1.
         -6    1    1    2    0  501  0.11723058972E+02 -0.15726052935E+03  0.73386255277E+03  0.77006918557E+03  0.17200000000E+03 0.  1.
</event>
<event>
 4    1  0.3196149E-002  0.1989114E+03  0.7818608E-02  0.1150661E+00
         -4   -1    0    0    0  501 -0.00000000000E+00  0.00000000000E+00  0.82373724766E+02  0.82373724766E+02  0.00000000000E+00 0.  1.
          4   -1    0    0  502    0  0.00000000000E+00 -0.00000000000E+00 -0.77454233088E+03  0.77454233088E+03  0.00000000000E+00 0. -1.
          6    1    1    2  502    0  0.99489223809E+02 -0.91447469094E+01 -0.61015709643E+03  0.64176118173E+03  0.17200000000E+03 0. -1.
         -6    1    1    2    0  501 -0.99489223809E+02  0.91447469094E+01 -0.82011509687E+02  0.21515487392E+03  0.17200000000E+03 0.  1.
</event>
<event>
 4    1  0.3196149E-002  0.1995694E+03  0.7818608E-02  0.1150103E+00
         -2   -1    0    0    0  501 -0.00000000000E+00  0.00000000000E+00  0.55088727881E+02  0.55088727881E+02  0.00000000000E+00 0.  1.
          2   -1    0    0  502    0  0.00000000000E+00 -0.00000000000E+00 -0.96811047387E+03  0.96811047387E+03  0.00000000000E+00 0. -1.
          6    1    1    2  502    0  0.96224243466E+02 -0.31382288178E+02 -0.19907567565E+03  0.28188486599E+03  0.17200000000E+03 0.  1.
         -6    1    1    2    0  501 -0.96224243466E+02  0.31382288178E+02 -0.71394607034E+03  0.74131433576E+03  0.17200000000E+03 0.  1.
</event>
<event>
 4    1  0.3196149E-002  0.1765010E+03  0.7818608E-02  0.1171233E+00
          2   -1    0    0  502    0  0.00000000000E+00  0.00000000000E+00  0.10998560621E+04  0.10998560621E+04  0.00000000000E+00 0. -1.
         -2   -1    0    0    0  501 -0.00000000000E+00 -0.00000000000E+00 -0.28519028483E+02  0.28519028483E+02  0.00000000000E+00 0.  1.
          6    1    1    2  502    0 -0.11466394547E+02 -0.37909221296E+02  0.58229552718E+03  0.60845761416E+03  0.17200000000E+03 0. -1.
         -6    1    1    2    0  501  0.11466394547E+02  0.37909221296E+02  0.48904150639E+03  0.51991747637E+03  0.17200000000E+03 0. -1.
</event>
<event>
 4    1  0.3196149E-002  0.2836624E+03  0.7818608E-02  0.1093705E+00
         -2   -1    0    0    0  501 -0.00000000000E+00  0.00000000000E+00  0.27086281855E+03  0.27086281855E+03  0.00000000000E+00 0.  1.
          2   -1    0    0  502    0  0.00000000000E+00 -0.00000000000E+00 -0.47137420524E+03  0.47137420524E+03  0.00000000000E+00 0. -1.
          6    1    1    2  502    0  0.78397564769E+02  0.21150459610E+03  0.12542142682E+03  0.31015303745E+03  0.17200000000E+03 0.  1.
         -6    1    1    2    0  501 -0.78397564769E+02 -0.21150459610E+03 -0.32593281351E+03  0.43208398635E+03  0.17200000000E+03 0. -1.
</event>
<event>
 4    1  0.3196149E-002  0.2009117E+03  0.7818608E-02  0.1148972E+00
          2   -1    0    0  502    0  0.00000000000E+00  0.00000000000E+00  0.31011651858E+04  0.31011651858E+04  0.00000000000E+00 0. -1.
         -2   -1    0    0    0  501 -0.00000000000E+00 -0.00000000000E+00 -0.15400098042E+02  0.15400098042E+02  0.00000000000E+00 0.  1.
          6    1    1    2  502    0 -0.10229650043E+03 -0.17802389113E+02  0.92979143735E+03  0.95125055376E+03  0.17200000000E+03 0.  1.
         -6    1    1    2    0  501  0.10229650043E+03  0.17802389113E+02  0.21559736504E+04  0.21653147300E+04  0.17200000000E+03 0. -1.
</event>
<event>
 4    1  0.3196149E-002  0.2107010E+03  0.7818608E-02  0.1141012E+00
          1   -1    0    0  502    0  0.00000000000E+00  0.00000000000E+00  0.15816623204E+04  0.15816623204E+04  0.00000000000E+00 0. -1.
         -1   -1    0    0    0  501 -0.00000000000E+00 -0.00000000000E+00 -0.28821187210E+02  0.28821187210E+02  0.00000000000E+00 0.  1.
          6    1    1    2  502    0 -0.11596629746E+03  0.36915235240E+02  0.90654909909E+03  0.93071273001E+03  0.17200000000E+03 0.  1.
         -6    1    1    2    0  501  0.11596629746E+03 -0.36915235240E+02  0.64629203411E+03  0.67977077761E+03  0.17200000000E+03 0. -1.
</event>
<event>
 4    1  0.3196149E-002  0.2109779E+03  0.7818608E-02  0.1140794E+00
         -2   -1    0    0    0  501 -0.00000000000E+00  0.00000000000E+00  0.63940127486E+02  0.63940127486E+02  0.00000000000E+00 0.  1.
          2   -1    0    0  502    0  0.00000000000E+00 -0.00000000000E+00 -0.75858744413E+03  0.75858744413E+03  0.00000000000E+00 0. -1.
          6    1    1    2  502    0  0.91777543028E+02  0.80650729310E+02 -0.22933114176E+03  0.31161583741E+03  0.17200000000E+03 0. -1.
         -6    1    1    2    0  501 -0.91777543028E+02 -0.80650729310E+02 -0.46531617489E+03  0.51091173421E+03  0.17200000000E+03 0. -1.
</event>
<event>
 4    1  0.3196149E-002  0.1973490E+03  0.7818608E-02  0.1151995E+00
          2   -1    0    0  502    0  0.00000000000E+00  0.00000000000E+00  0.11536215399E+04  0.11536215399E+04  0.00000000000E+00 0. -1.
         -2   -1    0    0    0  501 -0.00000000000E+00 -0.00000000000E+00 -0.36132576317E+02  0.36132576317E+02  0.00000000000E+00 0.  1.
          6    1    1    2  502    0  0.21108504631E+02  0.94430251747E+02  0.71117005703E+03  0.73804436955E+03  0.17200000000E+03 0. -1.
         -6    1    1    2    0  501 -0.21108504631E+02 -0.94430251747E+02  0.40631890659E+03  0.45170974670E+03  0.17200000000E+03 0.  1.
</event>
<event>
 4    1  0.3196149E-002  0.1794126E+03  0.7818608E-02  0.1168373E+00
          2   -1    0    0  502    0  0.00000000000E+00  0.00000000000E+00  0.31850485118E+03  0.31850485118E+03  0.00000000000E+00 0. -1.
         -2   -1    0    0    0  501 -0.00000000000E+00 -0.00000000000E+00 -0.22057333087E+03  0.22057333087E+03  0.00000000000E+00 0.  1.
          6    1    1    2  502    0 -0.40362314127E+02  0.31237249525E+02  0.24736909766E+03  0.30558199004E+03  0.17200000000E+03 0. -1.
         -6    1    1    2    0  501  0.40362314127E+02 -0.31237249525E+02 -0.14943757735E+03  0.23349619201E+03  0.17200000000E+03 0.  1.
</event>
<event>
 4    1  0.3196149E-002  0.1742300E+03  0.7818608E-02  0.1173507E+00
         -1   -1    0    0    0  501 -0.00000000000E+00  0.00000000000E+00  0.77036609393E+02  0.77036609393E+02  0.00000000000E+00 0.  1.
          1   -1    0    0  502    0  0.00000000000E+00 -0.00000000000E+00 -0.39437575414E+03  0.39437575414E+03  0.00000000000E+00 0. -1.
          6    1    1    2  502    0  0.74291075444E+00  0.27776723896E+02 -0.16546774852E+03  0.24028248814E+03  0.17200000000E+03 0.  1.
         -6    1    1    2    0  501 -0.74291075444E+00 -0.27776723896E+02 -0.15187139623E+03  0.23112987539E+03  0.17200000000E+03 0.  1.
</event>
<event>
 4    1  0.3196149E-002  0.2580209E+03  0.7818608E-02  0.1108338E+00
          2   -1    0    0  502    0  0.00000000000E+00  0.00000000000E+00  0.77475282569E+03  0.77475282569E+03  0.00000000000E+00 0. -1.
         -2   -1    0    0    0  501 -0.00000000000E+00 -0.00000000000E+00 -0.15600168717E+03  0.15600168717E+03  0.00000000000E+00 0.  1.
          6    1    1    2  502    0 -0.60113979721E+02 -0.18269405560E+03 -0.25210029197E+01  0.25803326135E+03  0.17200000000E+03 0.  1.
         -6    1    1    2    0  501  0.60113979721E+02  0.18269405560E+03  0.62127214144E+03  0.67272125151E+03  0.17200000000E+03 0. -1.
</event>
<event>
 4    1  0.3196149E-002  0.1734988E+03  0.7818608E-02  0.1174248E+00
          2   -1    0    0  502    0  0.00000000000E+00  0.00000000000E+00  0.48710214763E+03  0.48710214763E+03  0.00000000000E+00 0. -1.
         -2   -1    0    0    0  501 -0.00000000000E+00 -0.00000000000E+00 -0.62914719553E+02  0.62914719553E+02  0.00000000000E+00 0.  1.
          6    1    1    2  502    0 -0.11872522320E+02 -0.19412923783E+02  0.17545080977E+03  0.24674846514E+03  0.17200000000E+03 0.  1.
         -6    1    1    2    0  501  0.11872522320E+02  0.19412923783E+02  0.24873661830E+03  0.30326840204E+03  0.17200000000E+03 0. -1.
</event>
<event>
 4    1  0.3196149E-002  0.9844907E+03  0.7818608E-02  0.9325721E-01
         -1   -1    0    0    0  501 -0.00000000000E+00  0.00000000000E+00  0.10536617906E+04  0.10536617906E+04  0.00000000000E+00 0.  1.
          1   -1    0    0  502    0  0.00000000000E+00 -0.00000000000E+00 -0.11760567467E+04  0.11760567467E+04  0.00000000000E+00 0. -1.
          6    1    1    2  502    0 -0.94289253157E+03  0.22492593570E+03 -0.58154342714E+03  0.11434223893E+04  0.17200000000E+03 0. -1.
         -6    1    1    2    0  501  0.94289253157E+03 -0.22492593570E+03  0.45914847111E+03  0.10862961480E+04  0.17200000000E+03 0.  1.
</event>
<event>
 4    1  0.3196149E-002  0.4601423E+03  0.7818608E-02  0.1024740E+00
         -2   -1    0    0    0  501 -0.00000000000E+00  0.00000000000E+00  0.47862082125E+03  0.47862082125E+03  0.00000000000E+00 0.  1.
          2   -1    0    0  502    0  0.00000000000E+00 -0.00000000000E+00 -0.12592025649E+04  0.12592025649E+04  0.00000000000E+00 0. -1.
          6    1    1    2  502    0  0.57363481257E+02  0.42291412154E+03 -0.10901207147E+04  0.11832557187E+04  0.17200000000E+03 0. -1.
         -6    1    1    2    0  501 -0.57363481257E+02 -0.42291412154E+03  0.30953897106E+03  0.55456766746E+03  0.17200000000E+03 0.  1.
</event>
<event>
 4    1  0.3196149E-002  0.1856761E+03  0.7818608E-02  0.1162420E+00
          2   -1    0    0  502    0  0.00000000000E+00  0.00000000000E+00  0.78051895379E+02  0.78051895379E+02  0.00000000000E+00 0. -1.
         -2   -1    0    0    0  501 -0.00000000000E+00 -0.00000000000E+00 -0.76943778291E+03  0.76943778291E+03  0.00000000000E+00 0.  1.
          6    1    1    2  502    0 -0.57234285601E+02 -0.40197681772E+02 -0.69138833162E+02  0.19813075309E+03  0.17200000000E+03 0. -1.
         -6    1    1    2    0  501  0.57234285601E+02  0.40197681772E+02 -0.62224705437E+03  0.64935892520E+03  0.17200000000E+03 0.  1.
</event>
<event>
 4    1  0.3196149E-002  0.2128465E+03  0.7818608E-02  0.1139332E+00
          1   -1    0    0  502    0  0.00000000000E+00  0.00000000000E+00  0.91885722058E+03  0.91885722058E+03  0.00000000000E+00 0. -1.
         -1   -1    0    0    0  501 -0.00000000000E+00 -0.00000000000E+00 -0.77672401428E+02  0.77672401428E+02  0.00000000000E+00 0.  1.
          6    1    1    2  502    0 -0.12336302338E+03  0.22387196758E+02  0.72171400481E+03  0.75244582985E+03  0.17200000000E+03 0. -1.
         -6    1    1    2    0  501  0.12336302338E+03 -0.22387196758E+02  0.11947081435E+03  0.24408379217E+03  0.17200000000E+03 0.  1.
</event>
<event>
 4    1  0.3196149E-002  0.5167768E+03  0.7818608E-02  0.1009490E+00
          1   -1    0    0  502    0  0.00000000000E+00  0.00000000000E+00  0.39556745442E+03  0.39556745442E+03  0.00000000000E+00 0. -1.
         -1   -1    0    0    0  501 -0.00000000000E+00 -0.00000000000E+00 -0.70322543983E+03  0.70322543983E+03  0.00000000000E+00 0.  1.
          6    1    1    2  502    0 -0.47939023404E+03 -0.87517263025E+02 -0.44009437033E+02  0.51864737382E+03  0.17200000000E+03 0. -1.
         -6    1    1    2    0  501  0.47939023404E+03  0.87517263025E+02 -0.26364854838E+03  0.58014552044E+03  0.17200000000E+03 0.  1.
</event>
<event>
 4    1  0.3196149E-002  0.5162785E+03  0.7818608E-02  0.1009615E+00
          2   -1    0    0  502    0  0.00000000000E+00  0.00000000000E+00  0.17490025398E+04  0.17490025398E+04  0.00000000000E+00 0. -1.
         -2   -1    0    0    0  501 -0.00000000000E+00 -0.00000000000E+00 -0.22235902100E+03  0.22235902100E+03  0.00000000000E+00 0.  1.
          6    1    1    2  502    0 -0.42238803293E+03  0.24196671147E+03  0.21043184757E+03  0.55751690763E+03  0.17200000000E+03 0.  1.
         -6    1    1    2    0  501  0.42238803293E+03 -0.24196671147E+03  0.13162116713E+04  0.14138446532E+04  0.17200000000E+03 0. -1.
</event>
<event>
 4    1  0.3196149E-002  0.4692280E+03  0.7818608E-02  0.1022138E+00
         -2   -1    0    0    0  501 -0.00000000000E+00  0.00000000000E+00  0.32388794474E+03  0.32388794474E+03  0.00000000000E+00 0.  1.
          2   -1    0    0  502    0  0.00000000000E+00 -0.00000000000E+00 -0.76437671923E+03  0.76437671923E+03  0.00000000000E+00 0. -1.
          6    1    1    2  502    0 -0.10746571585E+02  0.43643489051E+03 -0.39231748459E+02  0.47086519572E+03  0.17200000000E+03 0. -1.
         -6    1    1    2    0  501  0.10746571585E+02 -0.43643489051E+03 -0.40125702603E+03  0.61739946825E+03  0.17200000000E+03 0.  1.
</event>
<event>
 4    1  0.3196149E-002  0.1936134E+03  0.7818608E-02  0.1155242E+00
         -2   -1    0    0    0  501 -0.00000000000E+00  0.00000000000E+00  0.29131172643E+03  0.29131172643E+03  0.00000000000E+00 0.  1.
          2   -1    0    0  502    0  0.00000000000E+00 -0.00000000000E+00 -0.22471950932E+03  0.22471950932E+03  0.00000000000E+00 0. -1.
          6    1    1    2  502    0 -0.93943766291E+01  0.88396318867E+02 -0.13537832040E+03  0.23624871034E+03  0.17200000000E+03 0. -1.
         -6    1    1    2    0  501  0.93943766291E+01 -0.88396318867E+02  0.20197053752E+03  0.27978252541E+03  0.17200000000E+03 0.  1.
</event>
<event>
 4    1  0.3196149E-002  0.1764783E+03  0.7818608E-02  0.1171256E+00
          1   -1    0    0  502    0  0.00000000000E+00  0.00000000000E+00  0.36228673399E+03  0.36228673399E+03  0.00000000000E+00 0. -1.
         -1   -1    0    0    0  501 -0.00000000000E+00 -0.00000000000E+00 -0.86357323353E+02  0.86357323353E+02  0.00000000000E+00 0.  1.
          6    1    1    2  502    0  0.19228656860E+02 -0.34508790419E+02  0.12287790958E+03  0.21504320153E+03  0.17200000000E+03 0.  1.
         -6    1    1    2    0  501 -0.19228656860E+02  0.34508790419E+02  0.15305150106E+03  0.23360085581E+03  0.17200000000E+03 0. -1.
</event>
<event>
 4    1  0.3196149E-002  0.5382202E+03  0.7818608E-02  0.1004258E+00
          2   -1    0    0  502    0  0.00000000000E+00  0.00000000000E+00  0.10393473026E+04  0.10393473026E+04  0.00000000000E+00 0. -1.
         -2   -1    0    0    0  501 -0.00000000000E+00 -0.00000000000E+00 -0.56734071877E+03  0.56734071877E+03  0.00000000000E+00 0.  1.
          6    1    1    2  502    0  0.25374859764E+03 -0.44238965076E+03  0.80899405991E+03  0.97167501917E+03  0.17200000000E+03 0. -1.
         -6    1    1    2    0  501 -0.25374859764E+03  0.44238965076E+03 -0.33698747609E+03  0.63501300219E+03  0.17200000000E+03 0.  1.
</event>
<event>
 4    1  0.3196149E-002  0.2077667E+03  0.7818608E-02  0.1143347E+00
          2   -1    0    0  502    0  0.00000000000E+00  0.00000000000E+00  0.47926274295E+04  0.47926274295E+04  0.00000000000E+00 0. -1.
         -2   -1    0    0    0  501 -0.00000000000E+00 -0.00000000000E+00 -0.11911997835E+02  0.11911997835E+02  0.00000000000E+00 0.  1.
          6    1    1    2  502    0  0.21237924257E+02 -0.11459467810E+03  0.35766878879E+04  0.35827172979E+04  0.17200000000E+03 0. -1.
         -6    1    1    2    0  501 -0.21237924257E+02  0.11459467810E+03  0.12040275438E+04  0.12218221294E+04  0.17200000000E+03 0.  1.
</event>
<event>
 4    1  0.3196149E-002  0.2111728E+03  0.7818608E-02  0.1140641E+00
          2   -1    0    0  502    0  0.00000000000E+00  0.00000000000E+00  0.28543531383E+03  0.28543531383E+03  0.00000000000E+00 0. -1.
         -2   -1    0    0    0  501 -0.00000000000E+00 -0.00000000000E+00 -0.27916289183E+03  0.27916289183E+03  0.00000000000E+00 0.  1.
          6    1    1    2  502    0 -0.10429899053E+03  0.64278183236E+02  0.19046830822E+03  0.28438027481E+03  0.17200000000E+03 0. -1.
         -6    1    1    2    0  501  0.10429899053E+03 -0.64278183236E+02 -0.18419588622E+03  0.28021793084E+03  0.17200000000E+03 0.  1.
</event>
<event>
 4    1  0.3196149E-002  0.1826527E+03  0.7818608E-02  0.1165260E+00
          2   -1    0    0  502    0  0.00000000000E+00  0.00000000000E+00  0.41174606595E+03  0.41174606595E+03  0.00000000000E+00 0. -1.
         -2   -1    0    0    0  501 -0.00000000000E+00 -0.00000000000E+00 -0.14427576074E+03  0.14427576074E+03  0.00000000000E+00 0.  1.
          6    1    1    2  502    0  0.60516793938E+02 -0.10756877716E+02  0.31781057344E+03  0.36655907212E+03  0.17200000000E+03 0. -1.
         -6    1    1    2    0  501 -0.60516793938E+02  0.10756877716E+02 -0.50340268227E+02  0.18946275458E+03  0.17200000000E+03 0.  1.
</event>
<event>
 4    1  0.3196149E-002  0.2110483E+03  0.7818608E-02  0.1140739E+00
          1   -1    0    0  502    0  0.00000000000E+00  0.00000000000E+00  0.15999897295E+04  0.15999897295E+04  0.00000000000E+00 0. -1.
         -1   -1    0    0    0  501 -0.00000000000E+00 -0.00000000000E+00 -0.27866098638E+02  0.27866098638E+02  0.00000000000E+00 0.  1.
          6    1    1    2  502    0 -0.12124815501E+03  0.16008652389E+02  0.81165403670E+03  0.83864394551E+03  0.17200000000E+03 0. -1.
         -6    1    1    2    0  501  0.12124815501E+03 -0.16008652389E+02  0.76046959419E+03  0.78921188266E+03  0.17200000000E+03 0. -1.
</event>
<event>
 4    1  0.3196149E-002  0.2479224E+03  0.7818608E-02  0.1114625E+00
          2   -1    0    0  502    0  0.00000000000E+00  0.00000000000E+00  0.17325658538E+04  0.17325658538E+04  0.00000000000E+00 0. -1.
         -2   -1    0    0    0  501 -0.00000000000E+00 -0.00000000000E+00 -0.38864795470E+02  0.38864795470E+02  0.00000000000E+00 0.  1.
          6    1    1    2  502    0 -0.16998421902E+03  0.54652162747E+02  0.11083688529E+04  0.11357583403E+04  0.17200000000E+03 0. -1.
         -6    1    1    2    0  501  0.16998421902E+03 -0.54652162747E+02  0.58533220547E+03  0.63567230895E+03  0.17200000000E+03 0.  1.
</event>
<event>
 4    1  0.3196149E-002  0.3552541E+03  0.7818608E-02  0.1060479E+00
          1   -1    0    0  502    0  0.00000000000E+00  0.00000000000E+00  0.14658639579E+04  0.14658639579E+04  0.00000000000E+00 0. -1.
         -1   -1    0    0    0  501 -0.00000000000E+00 -0.00000000000E+00 -0.12842595667E+03  0.12842595667E+03  0.00000000000E+00 0.  1.
          6    1    1    2  502    0 -0.30788340351E+03  0.42770205428E+02  0.11263687300E+04  0.11810639257E+04  0.17200000000E+03 0. -1.
         -6    1    1    2    0  501  0.30788340351E+03 -0.42770205428E+02  0.21106927121E+03  0.41322598887E+03  0.17200000000E+03 0.  1.
</event>
<event>
 4    1  0.3196149E-002  0.2251341E+03  0.7818608E-02  0.1130112E+00
          3   -1    0    0  502    0  0.00000000000E+00  0.00000000000E+00  0.81893948888E+03  0.81893948888E+03  0.00000000000E+00 0. -1.
         -3   -1    0    0    0  501 -0.00000000000E+00 -0.00000000000E+00 -0.67078090984E+02  0.67078090984E+02  0.00000000000E+00 0.  1.
          6    1    1    2  502    0  0.14425322106E+03  0.17099091991E+02  0.49911749339E+03  0.54754327951E+03  0.17200000000E+03 0. -1.
         -6    1    1    2    0  501 -0.14425322106E+03 -0.17099091991E+02  0.25274390450E+03  0.33847430035E+03  0.17200000000E+03 0.  1.
</event>
<event>
 4    1  0.3196149E-002  0.1957628E+03  0.7818608E-02  0.1153364E+00
         -1   -1    0    0    0  501 -0.00000000000E+00  0.00000000000E+00  0.32422064742E+03  0.32422064742E+03  0.00000000000E+00 0.  1.
          1   -1    0    0  502    0  0.00000000000E+00 -0.00000000000E+00 -0.18203368290E+03  0.18203368290E+03  0.00000000000E+00 0. -1.
          6    1    1    2  502    0  0.82872441241E+02 -0.43257649137E+02 -0.78801082438E+02  0.21102766719E+03  0.17200000000E+03 0. -1.
         -6    1    1    2    0  501 -0.82872441241E+02  0.43257649137E+02  0.22098804695E+03  0.29522666313E+03  0.17200000000E+03 0.  1.
</event>
<event>
 4    1  0.3196149E-002  0.1745988E+03  0.7818608E-02  0.1173135E+00
         -1   -1    0    0    0  501 -0.00000000000E+00  0.00000000000E+00  0.45631292898E+03  0.45631292898E+03  0.00000000000E+00 0.  1.
          1   -1    0    0  502    0  0.00000000000E+00 -0.00000000000E+00 -0.10133578265E+03  0.10133578265E+03  0.00000000000E+00 0. -1.
          6    1    1    2  502    0 -0.86604046020E+01 -0.28735689740E+02  0.14730676283E+02  0.17521910654E+03  0.17200000000E+03 0. -1.
         -6    1    1    2    0  501  0.86604046020E+01  0.28735689740E+02  0.34024647005E+03  0.38242960509E+03  0.17200000000E+03 0.  1.
</event>
<event>
 4    1  0.3196149E-002  0.2120995E+03  0.7818608E-02  0.1139914E+00
          2   -1    0    0  502    0  0.00000000000E+00  0.00000000000E+00  0.11841835152E+04  0.11841835152E+04  0.00000000000E+00 0. -1.
         -2   -1    0    0    0  501 -0.00000000000E+00 -0.00000000000E+00 -0.50842657733E+02  0.50842657733E+02  0.00000000000E+00 0.  1.
          6    1    1    2  502    0  0.13811496258E+02  0.12333459419E+03  0.87715648372E+03  0.90243541403E+03  0.17200000000E+03 0. -1.
         -6    1    1    2    0  501 -0.13811496258E+02 -0.12333459419E+03  0.25618437371E+03  0.33259075887E+03  0.17200000000E+03 0.  1.
</event>
<event>
 4    1  0.3196149E-002  0.3250269E+03  0.7818608E-02  0.1073359E+00
         -1   -1    0    0    0  501 -0.00000000000E+00  0.00000000000E+00  0.38530123582E+03  0.38530123582E+03  0.00000000000E+00 0.  1.
          1   -1    0    0  502    0  0.00000000000E+00 -0.00000000000E+00 -0.14501787652E+04  0.14501787652E+04  0.00000000000E+00 0. -1.
          6    1    1    2  502    0  0.97642380740E+02  0.25792337813E+03 -0.13588800999E+04  0.13972106604E+04  0.17200000000E+03 0. -1.
         -6    1    1    2    0  501 -0.97642380740E+02 -0.25792337813E+03  0.29400257051E+03  0.43826934067E+03  0.17200000000E+03 0.  1.
</event>
<event>
 4    1  0.3196149E-002  0.2898682E+03  0.7818608E-02  0.1090418E+00
         -1   -1    0    0    0  501 -0.00000000000E+00  0.00000000000E+00  0.79258345352E+02  0.79258345352E+02  0.00000000000E+00 0.  1.
          1   -1    0    0  502    0  0.00000000000E+00 -0.00000000000E+00 -0.10646736022E+04  0.10646736022E+04  0.00000000000E+00 0. -1.
          6    1    1    2  502    0 -0.18232389557E+03 -0.14559385802E+03 -0.53010221229E+03  0.60417872345E+03  0.17200000000E+03 0. -1.
         -6    1    1    2    0  501  0.18232389557E+03  0.14559385802E+03 -0.45531304456E+03  0.53975322411E+03  0.17200000000E+03 0.  1.
</event>
<event>
 4    1  0.3196149E-002  0.9889520E+03  0.7818608E-02  0.9320746E-01
          2   -1    0    0  502    0  0.00000000000E+00  0.00000000000E+00  0.26482381272E+04  0.26482381272E+04  0.00000000000E+00 0. -1.
         -2   -1    0    0    0  501 -0.00000000000E+00 -0.00000000000E+00 -0.12391720996E+04  0.12391720996E+04  0.00000000000E+00 0.  1.
          6    1    1    2  502    0  0.93401860627E+03  0.27577400833E+03  0.23330386821E+04  0.25339880728E+04  0.17200000000E+03 0. -1.
         -6    1    1    2    0  501 -0.93401860627E+03 -0.27577400833E+03 -0.92397265461E+03  0.13534221540E+04  0.17200000000E+03 0.  1.
</event>
<event>
 4    1  0.3196149E-002  0.2108856E+03  0.7818608E-02  0.1140867E+00
         -1   -1    0    0    0  501 -0.00000000000E+00  0.00000000000E+00  0.66038028098E+02  0.66038028098E+02  0.00000000000E+00 0.  1.
          1   -1    0    0  502    0  0.00000000000E+00 -0.00000000000E+00 -0.68446567041E+03  0.68446567041E+03  0.00000000000E+00 0. -1.
          6    1    1    2  502    0 -0.47535467741E+02  0.11237942124E+03 -0.26159067509E+03  0.33600957770E+03  0.17200000000E+03 0. -1.
         -6    1    1    2    0  501  0.47535467741E+02 -0.11237942124E+03 -0.35683696722E+03  0.41449412080E+03  0.17200000000E+03 0. -1.
</event>
<event>
 4    1  0.3196149E-002  0.1910310E+03  0.7818608E-02  0.1157535E+00
          2   -1    0    0  502    0  0.00000000000E+00  0.00000000000E+00  0.21001502896E+03  0.21001502896E+03  0.00000000000E+00 0. -1.
         -2   -1    0    0    0  501 -0.00000000000E+00 -0.00000000000E+00 -0.32446507064E+03  0.32446507064E+03  0.00000000000E+00 0.  1.
          6    1    1    2  502    0 -0.29028600353E+02 -0.77885773118E+02  0.12490313800E+03  0.22824032767E+03  0.17200000000E+03 0. -1.
         -6    1    1    2    0  501  0.29028600353E+02  0.77885773118E+02 -0.23935317968E+03  0.30623977193E+03  0.17200000000E+03 0.  1.
</event>
<event>
 4    1  0.3196149E-002  0.2136879E+03  0.7818608E-02  0.1138678E+00
         -1   -1    0    0    0  501 -0.00000000000E+00  0.00000000000E+00  0.94067324050E+03  0.94067324050E+03  0.00000000000E+00 0.  1.
          1   -1    0    0  502    0  0.00000000000E+00 -0.00000000000E+00 -0.53478506723E+02  0.53478506723E+02  0.00000000000E+00 0. -1.
          6    1    1    2  502    0  0.21188647814E+02 -0.12501819246E+03  0.29258006840E+03  0.36230595312E+03  0.17200000000E+03 0. -1.
         -6    1    1    2    0  501 -0.21188647814E+02  0.12501819246E+03  0.59461466538E+03  0.63184579410E+03  0.17200000000E+03 0.  1.
</event>
<event>
 4    1  0.3196149E-002  0.1936331E+03  0.7818608E-02  0.1155225E+00
         -2   -1    0    0    0  501 -0.00000000000E+00  0.00000000000E+00  0.55431390667E+02  0.55431390667E+02  0.00000000000E+00 0.  1.
          2   -1    0    0  502    0  0.00000000000E+00 -0.00000000000E+00 -0.81872763652E+03  0.81872763652E+03  0.00000000000E+00 0. -1.
          6    1    1    2  502    0  0.79519359831E+02  0.39830431559E+02 -0.56388462306E+03  0.59620437770E+03  0.17200000000E+03 0. -1.
         -6    1    1    2    0  501 -0.79519359831E+02 -0.39830431559E+02 -0.19941162279E+03  0.27795464948E+03  0.17200000000E+03 0.  1.
</event>
<event>
 4    1  0.3196149E-002  0.4325130E+03  0.7818608E-02  0.1033069E+00
         -2   -1    0    0    0  501 -0.00000000000E+00  0.00000000000E+00  0.77242864016E+03  0.77242864016E+03  0.00000000000E+00 0.  1.
          2   -1    0    0  502    0  0.00000000000E+00 -0.00000000000E+00 -0.32243321971E+03  0.32243321971E+03  0.00000000000E+00 0. -1.
          6    1    1    2  502    0  0.29431918954E+03 -0.26619494394E+03 -0.48112535308E+02  0.43518082398E+03  0.17200000000E+03 0. -1.
         -6    1    1    2    0  501 -0.29431918954E+03  0.26619494394E+03  0.49810795576E+03  0.65968103588E+03  0.17200000000E+03 0.  1.
</event>
<event>
 4    1  0.3196149E-002  0.2230589E+03  0.7818608E-02  0.1131623E+00
          1   -1    0    0  502    0  0.00000000000E+00  0.00000000000E+00  0.59129710108E+03  0.59129710108E+03  0.00000000000E+00 0. -1.
         -1   -1    0    0    0  501 -0.00000000000E+00 -0.00000000000E+00 -0.73013900065E+03  0.73013900065E+03  0.00000000000E+00 0.  1.
          6    1    1    2  502    0  0.11629684834E+03  0.81524992044E+02  0.55205926509E+03  0.59541977918E+03  0.17200000000E+03 0. -1.
         -6    1    1    2    0  501 -0.11629684834E+03 -0.81524992044E+02 -0.69090116467E+03  0.72601632255E+03  0.17200000000E+03 0.  1.
</event>
<event>
 4    1  0.3196149E-002  0.4158999E+03  0.7818608E-02  0.1038409E+00
         -1   -1    0    0    0  501 -0.00000000000E+00  0.00000000000E+00  0.52509993206E+03  0.52509993206E+03  0.00000000000E+00 0.  1.
          1   -1    0    0  502    0  0.00000000000E+00 -0.00000000000E+00 -0.34681051916E+03  0.34681051916E+03  0.00000000000E+00 0. -1.
          6    1    1    2  502    0  0.37116089528E+03  0.75022175017E+02  0.18679805034E+03  0.45592351172E+03  0.17200000000E+03 0.  1.
         -6    1    1    2    0  501 -0.37116089528E+03 -0.75022175017E+02 -0.85086374292E+01  0.41598693950E+03  0.17200000000E+03 0. -1.
</event>
<event>
 4    1  0.3196149E-002  0.5541211E+03  0.7818608E-02  0.1000545E+00
         -2   -1    0    0    0  501 -0.00000000000E+00  0.00000000000E+00  0.51947802507E+03  0.51947802507E+03  0.00000000000E+00 0.  1.
          2   -1    0    0  502    0  0.00000000000E+00 -0.00000000000E+00 -0.61962919751E+03  0.61962919751E+03  0.00000000000E+00 0. -1.
          6    1    1    2  502    0 -0.26856122830E+03  0.45314574331E+03  0.72190972155E+02  0.55880384259E+03  0.17200000000E+03 0. -1.
         -6    1    1    2    0  501  0.26856122830E+03 -0.45314574331E+03 -0.17234214460E+03  0.58030337999E+03  0.17200000000E+03 0.  1.
</event>
<event>
 4    1  0.3196149E-002  0.5714552E+03  0.7818608E-02  0.9966464E-01
          2   -1    0    0  502    0  0.00000000000E+00  0.00000000000E+00  0.20267881934E+04  0.20267881934E+04  0.00000000000E+00 0. -1.
         -2   -1    0    0    0  501 -0.00000000000E+00 -0.00000000000E+00 -0.25171037315E+03  0.25171037315E+03  0.00000000000E+00 0.  1.
          6    1    1    2  502    0 -0.37806946272E+03 -0.39247997199E+03  0.15709836369E+04  0.16716909506E+04  0.17200000000E+03 0. -1.
         -6    1    1    2    0  501  0.37806946272E+03  0.39247997199E+03  0.20409418336E+03  0.60680761591E+03  0.17200000000E+03 0.  1.
</event>
<event>
 4    1  0.3196149E-002  0.2132797E+03  0.7818608E-02  0.1138995E+00
         -2   -1    0    0    0  501 -0.00000000000E+00  0.00000000000E+00  0.50423173701E+02  0.50423173701E+02  0.00000000000E+00 0.  1.
          2   -1    0    0  502    0  0.00000000000E+00 -0.00000000000E+00 -0.15853480715E+04  0.15853480715E+04  0.00000000000E+00 0. -1.
          6    1    1    2  502    0  0.50135685920E+01  0.12601221668E+03 -0.23054167979E+03  0.31406636360E+03  0.17200000000E+03 0.  1.
         -6    1    1    2    0  501 -0.50135685920E+01 -0.12601221668E+03 -0.13043832180E+04  0.13217048816E+04  0.17200000000E+03 0. -1.
</event>
<event>
 4    1  0.3196149E-002  0.1813022E+03  0.7818608E-02  0.1166549E+00
          2   -1    0    0  502    0  0.00000000000E+00  0.00000000000E+00  0.70020670933E+03  0.70020670933E+03  0.00000000000E+00 0. -1.
         -2   -1    0    0    0  501 -0.00000000000E+00 -0.00000000000E+00 -0.48790154250E+02  0.48790154250E+02  0.00000000000E+00 0.  1.
          6    1    1    2  502    0  0.23052812819E+02 -0.52488645240E+02  0.25285984658E+03  0.31114079140E+03  0.17200000000E+03 0. -1.
         -6    1    1    2    0  501 -0.23052812819E+02  0.52488645240E+02  0.39855670849E+03  0.43785607218E+03  0.17200000000E+03 0. -1.
</event>
<event>
 4    1  0.3196149E-002  0.2294875E+03  0.7818608E-02  0.1127001E+00
         -1   -1    0    0    0  501 -0.00000000000E+00  0.00000000000E+00  0.42241930646E+03  0.42241930646E+03  0.00000000000E+00 0.  1.
          1   -1    0    0  502    0  0.00000000000E+00 -0.00000000000E+00 -0.19146396381E+03  0.19146396381E+03  0.00000000000E+00 0. -1.
          6    1    1    2  502    0  0.14497933729E+03 -0.45403764986E+02 -0.65810463403E+02  0.23873736031E+03  0.17200000000E+03 0. -1.
         -6    1    1    2    0  501 -0.14497933729E+03  0.45403764986E+02  0.29676580605E+03  0.37514590995E+03  0.17200000000E+03 0.  1.
</event>
<event>
 4    1  0.3196149E-002  0.2695476E+03  0.7818608E-02  0.1101539E+00
         -2   -1    0    0    0  501 -0.00000000000E+00  0.00000000000E+00  0.91669949252E+03  0.91669949252E+03  0.00000000000E+00 0.  1.
          2   -1    0    0  502    0  0.00000000000E+00 -0.00000000000E+00 -0.80863984425E+02  0.80863984425E+02  0.00000000000E+00 0. -1.
          6    1    1    2  502    0 -0.11981749583E+03 -0.16945707800E+03  0.48820544411E+03  0.55767417839E+03  0.17200000000E+03 0. -1.
         -6    1    1    2    0  501  0.11981749583E+03  0.16945707800E+03  0.34763006398E+03  0.43988929855E+03  0.17200000000E+03 0.  1.
</event>
<event>
 4    1  0.3196149E-002  0.1883817E+03  0.7818608E-02  0.1159929E+00
          2   -1    0    0  502    0  0.00000000000E+00  0.00000000000E+00  0.12794691895E+04  0.12794691895E+04  0.00000000000E+00 0. -1.
         -2   -1    0    0    0  501 -0.00000000000E+00 -0.00000000000E+00 -0.28289494700E+02  0.28289494700E+02  0.00000000000E+00 0.  1.
          6    1    1    2  502    0  0.76816918209E+02  0.16842212577E+01  0.53414816674E+03  0.56639380254E+03  0.17200000000E+03 0.  1.
         -6    1    1    2    0  501 -0.76816918209E+02 -0.16842212577E+01  0.71703152804E+03  0.74136488164E+03  0.17200000000E+03 0.  1.
</event>
<event>
 4    1  0.3196149E-002  0.3471565E+03  0.7818608E-02  0.1063788E+00
          1   -1    0    0  502    0  0.00000000000E+00  0.00000000000E+00  0.52895353528E+03  0.52895353528E+03  0.00000000000E+00 0. -1.
         -1   -1    0    0    0  501 -0.00000000000E+00 -0.00000000000E+00 -0.25647251809E+03  0.25647251809E+03  0.00000000000E+00 0.  1.
          6    1    1    2  502    0  0.22296056060E+03  0.20303258514E+03  0.26745210082E+03  0.43823312112E+03  0.17200000000E+03 0. -1.
         -6    1    1    2    0  501 -0.22296056060E+03 -0.20303258514E+03  0.50289163702E+01  0.34719293226E+03  0.17200000000E+03 0. -1.
</event>
<event>
 4    1  0.3196149E-002  0.1929810E+03  0.7818608E-02  0.1155800E+00
          1   -1    0    0  502    0  0.00000000000E+00  0.00000000000E+00  0.23427667106E+04  0.23427667106E+04  0.00000000000E+00 0. -1.
         -1   -1    0    0    0  501 -0.00000000000E+00 -0.00000000000E+00 -0.16039898091E+02  0.16039898091E+02  0.00000000000E+00 0.  1.
          6    1    1    2  502    0  0.87364218087E+02 -0.50171781585E+01  0.12748970323E+04  0.12894200719E+04  0.17200000000E+03 0. -1.
         -6    1    1    2    0  501 -0.87364218087E+02  0.50171781585E+01  0.10518297802E+04  0.10693865369E+04  0.17200000000E+03 0.  1.
</event>
<event>
 4    1  0.3196149E-002  0.1753865E+03  0.7818608E-02  0.1172344E+00
         -2   -1    0    0    0  501 -0.00000000000E+00  0.00000000000E+00  0.70516489531E+02  0.70516489531E+02  0.00000000000E+00 0.  1.
          2   -1    0    0  502    0  0.00000000000E+00 -0.00000000000E+00 -0.10527425372E+04  0.10527425372E+04  0.00000000000E+00 0. -1.
          6    1    1    2  502    0  0.14004344978E+02 -0.31309950643E+02 -0.92091128578E+03  0.93746361580E+03  0.17200000000E+03 0. -1.
         -6    1    1    2    0  501 -0.14004344978E+02  0.31309950643E+02 -0.61314761862E+02  0.18579541090E+03  0.17200000000E+03 0.  1.
</event>
<event>
 4    1  0.3196149E-002  0.2661616E+03  0.7818608E-02  0.1103497E+00
          1   -1    0    0  502    0  0.00000000000E+00  0.00000000000E+00  0.51387211721E+03  0.51387211721E+03  0.00000000000E+00 0. -1.
         -1   -1    0    0    0  501 -0.00000000000E+00 -0.00000000000E+00 -0.28331025591E+03  0.28331025591E+03  0.00000000000E+00 0.  1.
          6    1    1    2  502    0 -0.11229087535E+03 -0.16925940895E+03 -0.17031697207E+03  0.31599028336E+03  0.17200000000E+03 0.  1.
         -6    1    1    2    0  501  0.11229087535E+03  0.16925940895E+03  0.40087883337E+03  0.48119208976E+03  0.17200000000E+03 0. -1.
</event>
<event>
 4    1  0.3196149E-002  0.1786972E+03  0.7818608E-02  0.1169070E+00
          2   -1    0    0  502    0  0.00000000000E+00  0.00000000000E+00  0.18785555564E+04  0.18785555564E+04  0.00000000000E+00 0. -1.
         -2   -1    0    0    0  501 -0.00000000000E+00 -0.00000000000E+00 -0.17977479338E+02  0.17977479338E+02  0.00000000000E+00 0.  1.
          6    1    1    2  502    0 -0.90551209745E+01  0.47609875402E+02  0.70900776946E+03  0.73118035573E+03  0.17200000000E+03 0.  1.
         -6    1    1    2    0  501  0.90551209745E+01 -0.47609875402E+02  0.11515703076E+04  0.11653526800E+04  0.17200000000E+03 0. -1.
</event>
<event>
 4    1  0.3196149E-002  0.3724893E+03  0.7818608E-02  0.1053745E+00
          2   -1    0    0  502    0  0.00000000000E+00  0.00000000000E+00  0.12189692946E+04  0.12189692946E+04  0.00000000000E+00 0. -1.
         -2   -1    0    0    0  501 -0.00000000000E+00 -0.00000000000E+00 -0.23386321416E+03  0.23386321416E+03  0.00000000000E+00 0.  1.
          6    1    1    2  502    0  0.32918508652E+03  0.28309656959E+02  0.10129871197E+04  0.10793012381E+04  0.17200000000E+03 0. -1.
         -6    1    1    2    0  501 -0.32918508652E+03 -0.28309656959E+02 -0.27881039213E+02  0.37353127072E+03  0.17200000000E+03 0.  1.
</event>
<event>
 4    1  0.3196149E-002  0.2316035E+03  0.7818608E-02  0.1125516E+00
          2   -1    0    0  502    0  0.00000000000E+00  0.00000000000E+00  0.41343048129E+03  0.41343048129E+03  0.00000000000E+00 0. -1.
         -2   -1    0    0    0  501 -0.00000000000E+00 -0.00000000000E+00 -0.14399294499E+03  0.14399294499E+03  0.00000000000E+00 0.  1.
          6    1    1    2  502    0  0.93388312654E+02  0.12383372995E+03  0.47044065703E+02  0.23633305679E+03  0.17200000000E+03 0. -1.
         -6    1    1    2    0  501 -0.93388312654E+02 -0.12383372995E+03  0.22239347059E+03  0.32109036949E+03  0.17200000000E+03 0.  1.
</event>
<event>
 4    1  0.3196149E-002  0.1727533E+03  0.7818608E-02  0.1175007E+00
          2   -1    0    0  502    0  0.00000000000E+00  0.00000000000E+00  0.27838136796E+04  0.27838136796E+04  0.00000000000E+00 0. -1.
         -2   -1    0    0    0  501 -0.00000000000E+00 -0.00000000000E+00 -0.10849132312E+02  0.10849132312E+02  0.00000000000E+00 0.  1.
          6    1    1    2  502    0  0.15649501835E+02 -0.38465962933E+01  0.15386704219E+04  0.15483379381E+04  0.17200000000E+03 0. -1.
         -6    1    1    2    0  501 -0.15649501835E+02  0.38465962933E+01  0.12342941254E+04  0.12463248738E+04  0.17200000000E+03 0.  1.
</event>
<event>
 4    1  0.3196149E-002  0.2178549E+03  0.7818608E-02  0.1135492E+00
         -1   -1    0    0    0  501 -0.00000000000E+00  0.00000000000E+00  0.10182954874E+04  0.10182954874E+04  0.00000000000E+00 0.  1.
          1   -1    0    0  502    0  0.00000000000E+00 -0.00000000000E+00 -0.48900908538E+02  0.48900908538E+02  0.00000000000E+00 0. -1.
          6    1    1    2  502    0 -0.70541456579E+02  0.11358113194E+03  0.36915414498E+03  0.42864385378E+03  0.17200000000E+03 0. -1.
         -6    1    1    2    0  501  0.70541456579E+02 -0.11358113194E+03  0.60024043393E+03  0.63855254220E+03  0.17200000000E+03 0.  1.
</event>
<event>
 4    1  0.3196149E-002  0.1826241E+03  0.7818608E-02  0.1165287E+00
         -2   -1    0    0    0  501 -0.00000000000E+00  0.00000000000E+00  0.21510781573E+03  0.21510781573E+03  0.00000000000E+00 0.  1.
          2   -1    0    0  502    0  0.00000000000E+00 -0.00000000000E+00 -0.33297685056E+03  0.33297685056E+03  0.00000000000E+00 0. -1.
          6    1    1    2  502    0 -0.56653286395E+02 -0.23621607169E+02 -0.25926011190E+03  0.31712360493E+03  0.17200000000E+03 0. -1.
         -6    1    1    2    0  501  0.56653286395E+02  0.23621607169E+02  0.14139107707E+03  0.23096106135E+03  0.17200000000E+03 0.  1.
</event>
<event>
 4    1  0.3196149E-002  0.2100972E+03  0.7818608E-02  0.1141489E+00
          2   -1    0    0  502    0  0.00000000000E+00  0.00000000000E+00  0.17926985868E+04  0.17926985868E+04  0.00000000000E+00 0. -1.
         -2   -1    0    0    0  501 -0.00000000000E+00 -0.00000000000E+00 -0.28408635510E+02  0.28408635510E+02  0.00000000000E+00 0.  1.
          6    1    1    2  502    0 -0.11589048773E+03 -0.33559549852E+02  0.12145551659E+04  0.12325928361E+04  0.17200000000E+03 0. -1.
         -6    1    1    2    0  501  0.11589048773E+03  0.33559549852E+02  0.54973478533E+03  0.58851438618E+03  0.17200000000E+03 0.  1.
</event>
<event>
 4    1  0.3196149E-002  0.2154287E+03  0.7818608E-02  0.1137338E+00
          2   -1    0    0  502    0  0.00000000000E+00  0.00000000000E+00  0.10390860741E+04  0.10390860741E+04  0.00000000000E+00 0. -1.
         -2   -1    0    0    0  501 -0.00000000000E+00 -0.00000000000E+00 -0.48844479520E+02  0.48844479520E+02  0.00000000000E+00 0.  1.
          6    1    1    2  502    0 -0.11551089611E+03  0.59014925672E+02  0.65426362645E+03  0.68881813381E+03  0.17200000000E+03 0. -1.
         -6    1    1    2    0  501  0.11551089611E+03 -0.59014925672E+02  0.33597796810E+03  0.39911241978E+03  0.17200000000E+03 0.  1.
</event>
<event>
 4    1  0.3196149E-002  0.2008894E+03  0.7818608E-02  0.1148991E+00
         -2   -1    0    0    0  501 -0.00000000000E+00  0.00000000000E+00  0.13458149404E+02  0.13458149404E+02  0.00000000000E+00 0.  1.
          2   -1    0    0  502    0  0.00000000000E+00 -0.00000000000E+00 -0.30277493995E+04  0.30277493995E+04  0.00000000000E+00 0. -1.
          6    1    1    2  502    0  0.63625784204E+02  0.82001884656E+02 -0.16561669666E+04  0.16683061981E+04  0.17200000000E+03 0.  1.
         -6    1    1    2    0  501 -0.63625784204E+02 -0.82001884656E+02 -0.13581242835E+04  0.13729013507E+04  0.17200000000E+03 0. -1.
</event>
<event>
 4    1  0.3196149E-002  0.2910564E+03  0.7818608E-02  0.1089799E+00
         -2   -1    0    0    0  501 -0.00000000000E+00  0.00000000000E+00  0.33448212412E+03  0.33448212412E+03  0.00000000000E+00 0.  1.
          2   -1    0    0  502    0  0.00000000000E+00 -0.00000000000E+00 -0.35389457039E+03  0.35389457039E+03  0.00000000000E+00 0. -1.
          6    1    1    2  502    0 -0.22266059134E+02 -0.23373924880E+03 -0.19323927624E+03  0.34936403894E+03  0.17200000000E+03 0. -1.
         -6    1    1    2    0  501  0.22266059134E+02  0.23373924880E+03  0.17382682997E+03  0.33901265557E+03  0.17200000000E+03 0.  1.
</event>
<event>
 4    1  0.3196149E-002  0.2263202E+03  0.7818608E-02  0.1129257E+00
          2   -1    0    0  502    0  0.00000000000E+00  0.00000000000E+00  0.22626088395E+03  0.22626088395E+03  0.00000000000E+00 0. -1.
         -2   -1    0    0    0  501 -0.00000000000E+00 -0.00000000000E+00 -0.22655036474E+03  0.22655036474E+03  0.00000000000E+00 0.  1.
          6    1    1    2  502    0  0.73274674166E+02  0.12754470541E+03 -0.63621392139E+01  0.22640959910E+03  0.17200000000E+03 0.  1.
         -6    1    1    2    0  501 -0.73274674166E+02 -0.12754470541E+03  0.60726584252E+01  0.22640164958E+03  0.17200000000E+03 0. -1.
</event>
<event>
 4    1  0.3196149E-002  0.2231647E+03  0.7818608E-02  0.1131545E+00
          1   -1    0    0  502    0  0.00000000000E+00  0.00000000000E+00  0.29357035262E+03  0.29357035262E+03  0.00000000000E+00 0. -1.
         -1   -1    0    0    0  501 -0.00000000000E+00 -0.00000000000E+00 -0.18122025972E+03  0.18122025972E+03  0.00000000000E+00 0.  1.
          6    1    1    2  502    0 -0.11777445271E+03  0.79672321311E+02 -0.38247238523E+01  0.22319751120E+03  0.17200000000E+03 0.  1.
         -6    1    1    2    0  501  0.11777445271E+03 -0.79672321311E+02  0.11617481674E+03  0.25159310114E+03  0.17200000000E+03 0. -1.
</event>
<event>
 4    1  0.3196149E-002  0.2506873E+03  0.7818608E-02  0.1112871E+00
         -2   -1    0    0    0  501 -0.00000000000E+00  0.00000000000E+00  0.19314295316E+03  0.19314295316E+03  0.00000000000E+00 0.  1.
          2   -1    0    0  502    0  0.00000000000E+00 -0.00000000000E+00 -0.13098871731E+04  0.13098871731E+04  0.00000000000E+00 0. -1.
          6    1    1    2  502    0 -0.17008029945E+03 -0.65824168539E+02 -0.12098970053E+04  0.12355949550E+04  0.17200000000E+03 0. -1.
         -6    1    1    2    0  501  0.17008029945E+03  0.65824168539E+02  0.93152785321E+02  0.26743517128E+03  0.17200000000E+03 0.  1.
</event>
<event>
 4    1  0.3196149E-002  0.2196833E+03  0.7818608E-02  0.1134119E+00
         -2   -1    0    0    0  501 -0.00000000000E+00  0.00000000000E+00  0.17966722763E+03  0.17966722763E+03  0.00000000000E+00 0.  1.
          2   -1    0    0  502    0  0.00000000000E+00 -0.00000000000E+00 -0.67100431759E+03  0.67100431759E+03  0.00000000000E+00 0. -1.
          6    1    1    2  502    0 -0.49330202151E+02 -0.12744922511E+03 -0.57504616859E+03  0.61558010839E+03  0.17200000000E+03 0. -1.
         -6    1    1    2    0  501  0.49330202151E+02  0.12744922511E+03  0.83709078633E+02  0.23509143683E+03  0.17200000000E+03 0.  1.
</event>
<event>
 4    1  0.3196149E-002  0.1815072E+03  0.7818608E-02  0.1166352E+00
         -2   -1    0    0    0  501 -0.00000000000E+00  0.00000000000E+00  0.20407708000E+02  0.20407708000E+02  0.00000000000E+00 0.  1.
          2   -1    0    0  502    0  0.00000000000E+00 -0.00000000000E+00 -0.17327039551E+04  0.17327039551E+04  0.00000000000E+00 0. -1.
          6    1    1    2  502    0 -0.46629944637E+02  0.34445993828E+02 -0.10852539970E+04  0.11003277313E+04  0.17200000000E+03 0. -1.
         -6    1    1    2    0  501  0.46629944637E+02 -0.34445993828E+02 -0.62704225011E+03  0.65278393183E+03  0.17200000000E+03 0.  1.
</event>
<event>
 4    1  0.3196149E-002  0.2700772E+03  0.7818608E-02  0.1101235E+00
          2   -1    0    0  502    0  0.00000000000E+00  0.00000000000E+00  0.24994697528E+03  0.24994697528E+03  0.00000000000E+00 0. -1.
         -2   -1    0    0    0  501 -0.00000000000E+00 -0.00000000000E+00 -0.32622416057E+03  0.32622416057E+03  0.00000000000E+00 0.  1.
          6    1    1    2  502    0  0.20807500435E+03 -0.79051971949E+01  0.55404998436E+02  0.27570167470E+03  0.17200000000E+03 0. -1.
         -6    1    1    2    0  501 -0.20807500435E+03  0.79051971949E+01 -0.13168218372E+03  0.30046946116E+03  0.17200000000E+03 0.  1.
</event>
<event>
 4    1  0.3196149E-002  0.1750308E+03  0.7818608E-02  0.1172701E+00
          2   -1    0    0  502    0  0.00000000000E+00  0.00000000000E+00  0.39145401997E+03  0.39145401997E+03  0.00000000000E+00 0. -1.
         -2   -1    0    0    0  501 -0.00000000000E+00 -0.00000000000E+00 -0.29413658863E+03  0.29413658863E+03  0.00000000000E+00 0.  1.
          6    1    1    2  502    0 -0.22407357735E+02 -0.23445781768E+02  0.34233005440E+03  0.38448102751E+03  0.17200000000E+03 0. -1.
         -6    1    1    2    0  501  0.22407357735E+02  0.23445781768E+02 -0.24501262306E+03  0.30110958109E+03  0.17200000000E+03 0.  1.
</event>
<event>
 4    1  0.3196149E-002  0.6966020E+03  0.7818608E-02  0.9723061E-01
          2   -1    0    0  502    0  0.00000000000E+00  0.00000000000E+00  0.27383965507E+04  0.27383965507E+04  0.00000000000E+00 0. -1.
         -2   -1    0    0    0  501 -0.00000000000E+00 -0.00000000000E+00 -0.20988993047E+03  0.20988993047E+03  0.00000000000E+00 0.  1.
          6    1    1    2  502    0  0.26996775229E+03  0.61869848234E+03  0.18459885008E+04  0.19730504161E+04  0.17200000000E+03 0. -1.
         -6    1    1    2    0  501 -0.26996775229E+03 -0.61869848234E+03  0.68251811949E+03  0.97523606514E+03  0.17200000000E+03 0.  1.
</event>
<event>
 4    1  0.3196149E-002  0.3015350E+03  0.7818608E-02  0.1084476E+00
         -2   -1    0    0    0  501 -0.00000000000E+00  0.00000000000E+00  0.64493608813E+02  0.64493608813E+02  0.00000000000E+00 0.  1.
          2   -1    0    0  502    0  0.00000000000E+00 -0.00000000000E+00 -0.17910458370E+04  0.17910458370E+04  0.00000000000E+00 0. -1.
          6    1    1    2  502    0 -0.24678147385E+03  0.20935158598E+02 -0.12913185883E+04  0.13260569645E+04  0.17200000000E+03 0. -1.
         -6    1    1    2    0  501  0.24678147385E+03 -0.20935158598E+02 -0.43523363994E+03  0.52948248133E+03  0.17200000000E+03 0.  1.
</event>
<event>
 4    1  0.3196149E-002  0.1801592E+03  0.7818608E-02  0.1167649E+00
          2   -1    0    0  502    0  0.00000000000E+00  0.00000000000E+00  0.11036430026E+04  0.11036430026E+04  0.00000000000E+00 0. -1.
         -2   -1    0    0    0  501 -0.00000000000E+00 -0.00000000000E+00 -0.29516694825E+02  0.29516694825E+02  0.00000000000E+00 0.  1.
          6    1    1    2  502    0 -0.30942182538E+02 -0.43771352287E+02  0.50288470832E+03  0.53418197255E+03  0.17200000000E+03 0.  1.
         -6    1    1    2    0  501  0.30942182538E+02  0.43771352287E+02  0.57124159947E+03  0.59897772488E+03  0.17200000000E+03 0. -1.
</event>
<event>
 4    1  0.3196149E-002  0.1814113E+03  0.7818608E-02  0.1166444E+00
         -2   -1    0    0    0  501 -0.00000000000E+00  0.00000000000E+00  0.23268166285E+03  0.23268166285E+03  0.00000000000E+00 0.  1.
          2   -1    0    0  502    0  0.00000000000E+00 -0.00000000000E+00 -0.14215408194E+03  0.14215408194E+03  0.00000000000E+00 0. -1.
          6    1    1    2  502    0  0.16165245330E+02  0.55360225916E+02  0.58564034028E+02  0.19063004971E+03  0.17200000000E+03 0.  1.
         -6    1    1    2    0  501 -0.16165245330E+02 -0.55360225916E+02  0.31963546881E+02  0.18420569508E+03  0.17200000000E+03 0. -1.
</event>
<event>
 4    1  0.3196149E-002  0.2522755E+03  0.7818608E-02  0.1111875E+00
          1   -1    0    0  502    0  0.00000000000E+00  0.00000000000E+00  0.12070438513E+04  0.12070438513E+04  0.00000000000E+00 0. -1.
         -1   -1    0    0    0  501 -0.00000000000E+00 -0.00000000000E+00 -0.98649687716E+02  0.98649687716E+02  0.00000000000E+00 0.  1.
          6    1    1    2  502    0 -0.12202436532E+03 -0.13845204823E+03  0.99962816615E+03  0.10309701188E+04  0.17200000000E+03 0. -1.
         -6    1    1    2    0  501  0.12202436532E+03  0.13845204823E+03  0.10876599742E+03  0.27472342016E+03  0.17200000000E+03 0.  1.
</event>
<event>
 4    1  0.3196149E-002  0.3492892E+03  0.7818608E-02  0.1062907E+00
         -2   -1    0    0    0  501 -0.00000000000E+00  0.00000000000E+00  0.24546107529E+03  0.24546107529E+03  0.00000000000E+00 0.  1.
          2   -1    0    0  502    0  0.00000000000E+00 -0.00000000000E+00 -0.67778527269E+03  0.67778527269E+03  0.00000000000E+00 0. -1.
          6    1    1    2  502    0  0.19071364285E+03  0.23674304797E+03 -0.45454766076E+03  0.57325085279E+03  0.17200000000E+03 0. -1.
         -6    1    1    2    0  501 -0.19071364285E+03 -0.23674304797E+03  0.22223463351E+02  0.34999549519E+03  0.17200000000E+03 0.  1.
</event>
<event>
 4    1  0.3196149E-002  0.1897594E+03  0.7818608E-02  0.1158678E+00
          2   -1    0    0  502    0  0.00000000000E+00  0.00000000000E+00  0.91396645868E+03  0.91396645868E+03  0.00000000000E+00 0. -1.
         -2   -1    0    0    0  501 -0.00000000000E+00 -0.00000000000E+00 -0.44540096612E+02  0.44540096612E+02  0.00000000000E+00 0.  1.
          6    1    1    2  502    0  0.79668717867E+02  0.88057891602E+01  0.59754923691E+03  0.62695592912E+03  0.17200000000E+03 0. -1.
         -6    1    1    2    0  501 -0.79668717867E+02 -0.88057891602E+01  0.27187712515E+03  0.33155062617E+03  0.17200000000E+03 0. -1.
</event>
<event>
 4    1  0.3196149E-002  0.1866107E+03  0.7818608E-02  0.1161554E+00
         -2   -1    0    0    0  501 -0.00000000000E+00  0.00000000000E+00  0.34285155184E+02  0.34285155184E+02  0.00000000000E+00 0.  1.
          2   -1    0    0  502    0  0.00000000000E+00 -0.00000000000E+00 -0.12052247949E+04  0.12052247949E+04  0.00000000000E+00 0. -1.
          6    1    1    2  502    0 -0.37081118681E+02 -0.62165498562E+02 -0.83123184926E+03  0.85192132606E+03  0.17200000000E+03 0. -1.
         -6    1    1    2    0  501  0.37081118681E+02  0.62165498562E+02 -0.33970779045E+03  0.38758862401E+03  0.17200000000E+03 0.  1.
</event>
<event>
 4    1  0.3196149E-002  0.1773642E+03  0.7818608E-02  0.1170379E+00
          1   -1    0    0  502    0  0.00000000000E+00  0.00000000000E+00  0.30417406967E+03  0.30417406967E+03  0.00000000000E+00 0. -1.
         -1   -1    0    0    0  501 -0.00000000000E+00 -0.00000000000E+00 -0.11642717963E+03  0.11642717963E+03  0.00000000000E+00 0.  1.
          6    1    1    2  502    0  0.11905056878E+02  0.41621447373E+02  0.23585090926E+02  0.17892549224E+03  0.17200000000E+03 0.  1.
         -6    1    1    2    0  501 -0.11905056878E+02 -0.41621447373E+02  0.16416179911E+03  0.24167575706E+03  0.17200000000E+03 0.  1.
</event>
<event>
 4    1  0.3196149E-002  0.1967878E+03  0.7818608E-02  0.1152478E+00
         -1   -1    0    0    0  501 -0.00000000000E+00  0.00000000000E+00  0.18922337417E+02  0.18922337417E+02  0.00000000000E+00 0.  1.
          1   -1    0    0  502    0  0.00000000000E+00 -0.00000000000E+00 -0.25595424107E+04  0.25595424107E+04  0.00000000000E+00 0. -1.
          6    1    1    2  502    0 -0.35575540706E+02 -0.88745753171E+02 -0.18474848064E+04  0.18579358271E+04  0.17200000000E+03 0. -1.
         -6    1    1    2    0  501  0.35575540706E+02  0.88745753171E+02 -0.69313526691E+03  0.72052892103E+03  0.17200000000E+03 0.  1.
</event>
<event>
 4    1  0.3196149E-002  0.1909672E+03  0.7818608E-02  0.1157592E+00
          1   -1    0    0  502    0  0.00000000000E+00  0.00000000000E+00  0.87385170185E+03  0.87385170185E+03  0.00000000000E+00 0. -1.
         -1   -1    0    0    0  501 -0.00000000000E+00 -0.00000000000E+00 -0.42921572313E+02  0.42921572313E+02  0.00000000000E+00 0.  1.
          6    1    1    2  502    0  0.67011564517E+01  0.82701647822E+02  0.49174385747E+03  0.52752297524E+03  0.17200000000E+03 0.  1.
         -6    1    1    2    0  501 -0.67011564517E+01 -0.82701647822E+02  0.33918627207E+03  0.38925029893E+03  0.17200000000E+03 0.  1.
</event>
<event>
 4    1  0.3196149E-002  0.1722799E+03  0.7818608E-02  0.1175491E+00
          1   -1    0    0  502    0  0.00000000000E+00  0.00000000000E+00  0.14159536684E+03  0.14159536684E+03  0.00000000000E+00 0. -1.
         -1   -1    0    0    0  501 -0.00000000000E+00 -0.00000000000E+00 -0.28400017803E+03  0.28400017803E+03  0.00000000000E+00 0.  1.
          6    1    1    2  502    0  0.38249868400E+01 -0.90410692627E+01 -0.18010892767E+03  0.24923803338E+03  0.17200000000E+03 0.  1.
         -6    1    1    2    0  501 -0.38249868400E+01  0.90410692627E+01  0.37704116474E+02  0.17635751148E+03  0.17200000000E+03 0. -1.
</event>
<event>
 4    1  0.3196149E-002  0.1771429E+03  0.7818608E-02  0.1170597E+00
         -2   -1    0    0    0  501 -0.00000000000E+00  0.00000000000E+00  0.46711166808E+02  0.46711166808E+02  0.00000000000E+00 0.  1.
          2   -1    0    0  502    0  0.00000000000E+00 -0.00000000000E+00 -0.67513668402E+03  0.67513668402E+03  0.00000000000E+00 0. -1.
          6    1    1    2  502    0 -0.41782127939E+02 -0.70616995084E+01 -0.28876238324E+03  0.33876736530E+03  0.17200000000E+03 0. -1.
         -6    1    1    2    0  501  0.41782127939E+02  0.70616995084E+01 -0.33966313397E+03  0.38308048553E+03  0.17200000000E+03 0.  1.
</event>
<event>
 4    1  0.3196149E-002  0.2087034E+03  0.7818608E-02  0.1142597E+00
         -1   -1    0    0    0  501 -0.00000000000E+00  0.00000000000E+00  0.45186547029E+02  0.45186547029E+02  0.00000000000E+00 0.  1.
          1   -1    0    0  502    0  0.00000000000E+00 -0.00000000000E+00 -0.12767389042E+04  0.12767389042E+04  0.00000000000E+00 0. -1.
          6    1    1    2  502    0 -0.39971674250E+01  0.11814033887E+03 -0.94293496001E+03  0.96575538094E+03  0.17200000000E+03 0. -1.
         -6    1    1    2    0  501  0.39971674250E+01 -0.11814033887E+03 -0.28861739712E+03  0.35617007024E+03  0.17200000000E+03 0.  1.
</event>
<event>
 4    1  0.3196149E-002  0.2000970E+03  0.7818608E-02  0.1149657E+00
         -2   -1    0    0    0  501 -0.00000000000E+00  0.00000000000E+00  0.20083042055E+02  0.20083042055E+02  0.00000000000E+00 0.  1.
          2   -1    0    0  502    0  0.00000000000E+00 -0.00000000000E+00 -0.23918379028E+04  0.23918379028E+04  0.00000000000E+00 0. -1.
          6    1    1    2  502    0  0.28472862591E+02  0.98204468803E+02 -0.16779215450E+04  0.16898105020E+04  0.17200000000E+03 0. -1.
         -6    1    1    2    0  501 -0.28472862591E+02 -0.98204468803E+02 -0.69383331575E+03  0.72211044283E+03  0.17200000000E+03 0.  1.
</event>
<event>
 4    1  0.3196149E-002  0.4105106E+03  0.7818608E-02  0.1040200E+00
         -2   -1    0    0    0  501 -0.00000000000E+00  0.00000000000E+00  0.17188406777E+03  0.17188406777E+03  0.00000000000E+00 0.  1.
          2   -1    0    0  502    0  0.00000000000E+00 -0.00000000000E+00 -0.98316412572E+03  0.98316412572E+03  0.00000000000E+00 0. -1.
          6    1    1    2  502    0 -0.31617026089E+03  0.19741151731E+03 -0.37514059541E+03  0.55610197568E+03  0.17200000000E+03 0. -1.
         -6    1    1    2    0  501  0.31617026089E+03 -0.19741151731E+03 -0.43613946255E+03  0.59894621781E+03  0.17200000000E+03 0.  1.
</event>
<event>
 4    1  0.3196149E-002  0.2213505E+03  0.7818608E-02  0.1132880E+00
         -2   -1    0    0    0  501 -0.00000000000E+00  0.00000000000E+00  0.49051252745E+02  0.49051252745E+02  0.00000000000E+00 0.  1.
          2   -1    0    0  502    0  0.00000000000E+00 -0.00000000000E+00 -0.10260601806E+04  0.10260601806E+04  0.00000000000E+00 0. -1.
          6    1    1    2  502    0  0.13924705914E+03 -0.47243024682E+01 -0.40100519740E+03  0.45804064323E+03  0.17200000000E+03 0. -1.
         -6    1    1    2    0  501 -0.13924705914E+03  0.47243024682E+01 -0.57600373048E+03  0.61707079013E+03  0.17200000000E+03 0.  1.
</event>
<event>
 4    1  0.3196149E-002  0.4590838E+03  0.7818608E-02  0.1025047E+00
         -2   -1    0    0    0  501 -0.00000000000E+00  0.00000000000E+00  0.14344056917E+03  0.14344056917E+03  0.00000000000E+00 0.  1.
          2   -1    0    0  502    0  0.00000000000E+00 -0.00000000000E+00 -0.15130692532E+04  0.15130692532E+04  0.00000000000E+00 0. -1.
          6    1    1    2  502    0 -0.40929129979E+03  0.11685270610E+03 -0.82567676519E+03  0.94472220445E+03  0.17200000000E+03 0. -1.
         -6    1    1    2    0  501  0.40929129979E+03 -0.11685270610E+03 -0.54395191883E+03  0.71178761790E+03  0.17200000000E+03 0.  1.
</event>
<event>
 4    1  0.3196149E-002  0.2282875E+03  0.7818608E-02  0.1127851E+00
          2   -1    0    0  502    0  0.00000000000E+00  0.00000000000E+00  0.25325157799E+04  0.25325157799E+04  0.00000000000E+00 0. -1.
         -2   -1    0    0    0  501 -0.00000000000E+00 -0.00000000000E+00 -0.23348459165E+02  0.23348459165E+02  0.00000000000E+00 0.  1.
          6    1    1    2  502    0 -0.14727775312E+03 -0.28990115166E+02  0.81441214134E+03  0.84580275438E+03  0.17200000000E+03 0. -1.
         -6    1    1    2    0  501  0.14727775312E+03  0.28990115166E+02  0.16947551794E+04  0.17100614847E+04  0.17200000000E+03 0.  1.
</event>
<event>
 4    1  0.3196149E-002  0.4200238E+03  0.7818608E-02  0.1037059E+00
         -3   -1    0    0    0  501 -0.00000000000E+00  0.00000000000E+00  0.14552001616E+04  0.14552001616E+04  0.00000000000E+00 0.  1.
          3   -1    0    0  502    0  0.00000000000E+00 -0.00000000000E+00 -0.15479781143E+03  0.15479781143E+03  0.00000000000E+00 0. -1.
          6    1    1    2  502    0  0.32978546293E+03  0.19513458028E+03  0.27535974559E+03  0.50223793711E+03  0.17200000000E+03 0. -1.
         -6    1    1    2    0  501 -0.32978546293E+03 -0.19513458028E+03  0.10250426046E+04  0.11077600359E+04  0.17200000000E+03 0.  1.
</event>
<event>
 4    1  0.3196149E-002  0.1754054E+03  0.7818608E-02  0.1172325E+00
         -2   -1    0    0    0  501 -0.00000000000E+00  0.00000000000E+00  0.33324794947E+03  0.33324794947E+03  0.00000000000E+00 0.  1.
          2   -1    0    0  502    0  0.00000000000E+00 -0.00000000000E+00 -0.41127287631E+03  0.41127287631E+03  0.00000000000E+00 0. -1.
          6    1    1    2  502    0 -0.17621994280E+02 -0.29538399367E+02 -0.36683726807E+03  0.40661607564E+03  0.17200000000E+03 0. -1.
         -6    1    1    2    0  501  0.17621994280E+02  0.29538399367E+02  0.28881234124E+03  0.33790475015E+03  0.17200000000E+03 0.  1.
</event>
<event>
 4    1  0.3196149E-002  0.2749587E+03  0.7818608E-02  0.1098475E+00
         -2   -1    0    0    0  501 -0.00000000000E+00  0.00000000000E+00  0.38419496558E+03  0.38419496558E+03  0.00000000000E+00 0.  1.
          2   -1    0    0  502    0  0.00000000000E+00 -0.00000000000E+00 -0.40890257523E+03  0.40890257523E+03  0.00000000000E+00 0. -1.
          6    1    1    2  502    0 -0.16630495699E+02  0.21387309431E+03 -0.29796754402E+03  0.40544658236E+03  0.17200000000E+03 0. -1.
         -6    1    1    2    0  501  0.16630495699E+02 -0.21387309431E+03  0.27325993437E+03  0.38765095845E+03  0.17200000000E+03 0.  1.
</event>
<event>
 4    1  0.3196149E-002  0.2421673E+03  0.7818608E-02  0.1118357E+00
         -1   -1    0    0    0  501 -0.00000000000E+00  0.00000000000E+00  0.19466963187E+02  0.19466963187E+02  0.00000000000E+00 0.  1.
          1   -1    0    0  502    0  0.00000000000E+00 -0.00000000000E+00 -0.30166781985E+04  0.30166781985E+04  0.00000000000E+00 0. -1.
          6    1    1    2  502    0  0.17022558192E+03  0.91800286984E+01 -0.14423857885E+04  0.14625736851E+04  0.17200000000E+03 0.  1.
         -6    1    1    2    0  501 -0.17022558192E+03 -0.91800286984E+01 -0.15548254469E+04  0.15735714766E+04  0.17200000000E+03 0. -1.
</event>
<event>
 4    1  0.3196149E-002  0.1912559E+03  0.7818608E-02  0.1157333E+00
          2   -1    0    0  502    0  0.00000000000E+00  0.00000000000E+00  0.32712407428E+04  0.32712407428E+04  0.00000000000E+00 0. -1.
         -2   -1    0    0    0  501 -0.00000000000E+00 -0.00000000000E+00 -0.33740186718E+02  0.33740186718E+02  0.00000000000E+00 0.  1.
          6    1    1    2  502    0  0.72668679821E+02 -0.41401453939E+02  0.29699448544E+04  0.29760966476E+04  0.17200000000E+03 0. -1.
         -6    1    1    2    0  501 -0.72668679821E+02  0.41401453939E+02  0.26755570164E+03  0.32888428193E+03  0.17200000000E+03 0.  1.
</event>
<event>
 4    1  0.3196149E-002  0.4109407E+03  0.7818608E-02  0.1040056E+00
         -2   -1    0    0    0  501 -0.00000000000E+00  0.00000000000E+00  0.20411965096E+03  0.20411965096E+03  0.00000000000E+00 0.  1.
          2   -1    0    0  502    0  0.00000000000E+00 -0.00000000000E+00 -0.99475813122E+03  0.99475813122E+03  0.00000000000E+00 0. -1.
          6    1    1    2  502    0 -0.37316052765E+03  0.62855864390E+01 -0.64125021692E+03  0.76162597690E+03  0.17200000000E+03 0. -1.
         -6    1    1    2    0  501  0.37316052765E+03 -0.62855864390E+01 -0.14938826334E+03  0.43725180527E+03  0.17200000000E+03 0. -1.
</event>
<event>
 4    1  0.3196149E-002  0.1948695E+03  0.7818608E-02  0.1154141E+00
         -1   -1    0    0    0  501 -0.00000000000E+00  0.00000000000E+00  0.40290148417E+02  0.40290148417E+02  0.00000000000E+00 0.  1.
          1   -1    0    0  502    0  0.00000000000E+00 -0.00000000000E+00 -0.10600380876E+04  0.10600380876E+04  0.00000000000E+00 0. -1.
          6    1    1    2  502    0  0.69800524735E+02  0.59312811525E+02 -0.32668865102E+03  0.38039400307E+03  0.17200000000E+03 0.  1.
         -6    1    1    2    0  501 -0.69800524735E+02 -0.59312811525E+02 -0.69305928816E+03  0.71993423295E+03  0.17200000000E+03 0. -1.
</event>
<event>
 4    1  0.3196149E-002  0.2513582E+03  0.7818608E-02  0.1112449E+00
         -4   -1    0    0    0  501 -0.00000000000E+00  0.00000000000E+00  0.60326602349E+02  0.60326602349E+02  0.00000000000E+00 0.  1.
          4   -1    0    0  502    0  0.00000000000E+00 -0.00000000000E+00 -0.10796308276E+04  0.10796308276E+04  0.00000000000E+00 0. -1.
          6    1    1    2  502    0  0.10001123838E+03  0.15360564328E+03 -0.60826421331E+03  0.65815370138E+03  0.17200000000E+03 0. -1.
         -6    1    1    2    0  501 -0.10001123838E+03 -0.15360564328E+03 -0.41104001196E+03  0.48180372859E+03  0.17200000000E+03 0.  1.
</event>
<event>
 4    1  0.3196149E-002  0.1907185E+03  0.7818608E-02  0.1157815E+00
         -3   -1    0    0    0  501 -0.00000000000E+00  0.00000000000E+00  0.73824904615E+02  0.73824904615E+02  0.00000000000E+00 0.  1.
          3   -1    0    0  502    0  0.00000000000E+00 -0.00000000000E+00 -0.50425378385E+03  0.50425378385E+03  0.00000000000E+00 0. -1.
          6    1    1    2  502    0 -0.15023140657E+02  0.81017489459E+02 -0.25896615116E+03  0.32161622440E+03  0.17200000000E+03 0.  1.
         -6    1    1    2    0  501  0.15023140657E+02 -0.81017489459E+02 -0.17146272808E+03  0.25646246406E+03  0.17200000000E+03 0.  1.
</event>
<event>
 4    1  0.3196149E-002  0.1735016E+03  0.7818608E-02  0.1174245E+00
         -2   -1    0    0    0  501 -0.00000000000E+00  0.00000000000E+00  0.52076765004E+02  0.52076765004E+02  0.00000000000E+00 0.  1.
          2   -1    0    0  502    0  0.00000000000E+00 -0.00000000000E+00 -0.75552892606E+03  0.75552892606E+03  0.00000000000E+00 0. -1.
          6    1    1    2  502    0 -0.22037042795E+02  0.57603724281E+01 -0.54743967908E+03  0.57427607940E+03  0.17200000000E+03 0. -1.
         -6    1    1    2    0  501  0.22037042795E+02 -0.57603724281E+01 -0.15601248198E+03  0.23332961166E+03  0.17200000000E+03 0.  1.
</event>
<event>
 4    1  0.3196149E-002  0.2210179E+03  0.7818608E-02  0.1133126E+00
         -2   -1    0    0    0  501 -0.00000000000E+00  0.00000000000E+00  0.68850627503E+02  0.68850627503E+02  0.00000000000E+00 0.  1.
          2   -1    0    0  502    0  0.00000000000E+00 -0.00000000000E+00 -0.95989774085E+03  0.95989774085E+03  0.00000000000E+00 0. -1.
          6    1    1    2  502    0 -0.30783956955E+02  0.13534134003E+03 -0.70824124370E+03  0.74192626965E+03  0.17200000000E+03 0. -1.
         -6    1    1    2    0  501  0.30783956955E+02 -0.13534134003E+03 -0.18280586965E+03  0.28682209870E+03  0.17200000000E+03 0.  1.
</event>
<event>
 4    1  0.3196149E-002  0.1940118E+03  0.7818608E-02  0.1154892E+00
          2   -1    0    0  502    0  0.00000000000E+00  0.00000000000E+00  0.13614993834E+04  0.13614993834E+04  0.00000000000E+00 0. -1.
         -2   -1    0    0    0  501 -0.00000000000E+00 -0.00000000000E+00 -0.31286945833E+02  0.31286945833E+02  0.00000000000E+00 0.  1.
          6    1    1    2  502    0  0.12800844077E+02  0.88840888064E+02  0.42755580245E+03  0.46951520658E+03  0.17200000000E+03 0.  1.
         -6    1    1    2    0  501 -0.12800844077E+02 -0.88840888064E+02  0.90265663509E+03  0.92327112262E+03  0.17200000000E+03 0. -1.
</event>
<event>
 4    1  0.3196149E-002  0.2028656E+03  0.7818608E-02  0.1147344E+00
          1   -1    0    0  502    0  0.00000000000E+00  0.00000000000E+00  0.59350099491E+03  0.59350099491E+03  0.00000000000E+00 0. -1.
         -1   -1    0    0    0  501 -0.00000000000E+00 -0.00000000000E+00 -0.70083613443E+02  0.70083613443E+02  0.00000000000E+00 0.  1.
          6    1    1    2  502    0  0.98855577534E+02  0.42403289268E+02  0.29584269464E+03  0.35871627245E+03  0.17200000000E+03 0. -1.
         -6    1    1    2    0  501 -0.98855577534E+02 -0.42403289268E+02  0.22757468682E+03  0.30486833590E+03  0.17200000000E+03 0.  1.
</event>
<event>
 4    1  0.3196149E-002  0.1764316E+03  0.7818608E-02  0.1171302E+00
          4   -1    0    0  502    0  0.00000000000E+00  0.00000000000E+00  0.70695861340E+02  0.70695861340E+02  0.00000000000E+00 0. -1.
         -4   -1    0    0    0  501 -0.00000000000E+00 -0.00000000000E+00 -0.52238180692E+03  0.52238180692E+03  0.00000000000E+00 0.  1.
          6    1    1    2  502    0 -0.23756226764E+02  0.31300808275E+02 -0.10830332246E+03  0.20702103411E+03  0.17200000000E+03 0. -1.
         -6    1    1    2    0  501  0.23756226764E+02 -0.31300808275E+02 -0.34338262312E+03  0.38605663415E+03  0.17200000000E+03 0.  1.
</event>
<event>
 4    1  0.3196149E-002  0.4945893E+03  0.7818608E-02  0.1015201E+00
          1   -1    0    0  502    0  0.00000000000E+00  0.00000000000E+00  0.12279994790E+04  0.12279994790E+04  0.00000000000E+00 0. -1.
         -1   -1    0    0    0  501 -0.00000000000E+00 -0.00000000000E+00 -0.22316931733E+03  0.22316931733E+03  0.00000000000E+00 0.  1.
          6    1    1    2  502    0  0.34849193426E+03 -0.30592145873E+03  0.74020345913E+03  0.89023577105E+03  0.17200000000E+03 0. -1.
         -6    1    1    2    0  501 -0.34849193426E+03  0.30592145873E+03  0.26462670253E+03  0.56093302528E+03  0.17200000000E+03 0.  1.
</event>
<event>
 4    1  0.3196149E-002  0.1867647E+03  0.7818608E-02  0.1161412E+00
          2   -1    0    0  502    0  0.00000000000E+00  0.00000000000E+00  0.23942030547E+03  0.23942030547E+03  0.00000000000E+00 0. -1.
         -2   -1    0    0    0  501 -0.00000000000E+00 -0.00000000000E+00 -0.17032340960E+03  0.17032340960E+03  0.00000000000E+00 0.  1.
          6    1    1    2  502    0 -0.68096694943E+02  0.25688605378E+02  0.11246152263E+03  0.21801068410E+03  0.17200000000E+03 0. -1.
         -6    1    1    2    0  501  0.68096694943E+02 -0.25688605378E+02 -0.43364626764E+02  0.19173303096E+03  0.17200000000E+03 0.  1.
</event>
<event>
 4    1  0.3196149E-002  0.1972072E+03  0.7818608E-02  0.1152117E+00
         -2   -1    0    0    0  501 -0.00000000000E+00  0.00000000000E+00  0.44460964459E+02  0.44460964459E+02  0.00000000000E+00 0.  1.
          2   -1    0    0  502    0  0.00000000000E+00 -0.00000000000E+00 -0.12494483683E+04  0.12494483683E+04  0.00000000000E+00 0. -1.
          6    1    1    2  502    0 -0.79521908752E+02 -0.54616514520E+02 -0.95679728865E+03  0.97690928401E+03  0.17200000000E+03 0. -1.
         -6    1    1    2    0  501  0.79521908752E+02  0.54616514520E+02 -0.24819011524E+03  0.31700004879E+03  0.17200000000E+03 0.  1.
</event>
<event>
 4    1  0.3196149E-002  0.4789705E+03  0.7818608E-02  0.1019419E+00
          2   -1    0    0  502    0  0.00000000000E+00  0.00000000000E+00  0.77717225057E+03  0.77717225057E+03  0.00000000000E+00 0. -1.
         -2   -1    0    0    0  501 -0.00000000000E+00 -0.00000000000E+00 -0.30451792204E+03  0.30451792204E+03  0.00000000000E+00 0.  1.
          6    1    1    2  502    0  0.32071818807E+02 -0.44587003768E+03  0.33099063284E+03  0.58220914720E+03  0.17200000000E+03 0. -1.
         -6    1    1    2    0  501 -0.32071818807E+02  0.44587003768E+03  0.14166369569E+03  0.49948102540E+03  0.17200000000E+03 0.  1.
</event>
<event>
 4    1  0.3196149E-002  0.2089866E+03  0.7818608E-02  0.1142371E+00
          2   -1    0    0  502    0  0.00000000000E+00  0.00000000000E+00  0.32442243492E+03  0.32442243492E+03  0.00000000000E+00 0. -1.
         -2   -1    0    0    0  501 -0.00000000000E+00 -0.00000000000E+00 -0.18717436680E+03  0.18717436680E+03  0.00000000000E+00 0.  1.
          6    1    1    2  502    0  0.92489136174E+01  0.11834642401E+03 -0.66912934780E+02  0.21943736993E+03  0.17200000000E+03 0.  1.
         -6    1    1    2    0  501 -0.92489136174E+01 -0.11834642401E+03  0.20416100290E+03  0.29215943179E+03  0.17200000000E+03 0. -1.
</event>
<event>
 4    1  0.3196149E-002  0.1806026E+03  0.7818608E-02  0.1167221E+00
         -2   -1    0    0    0  501 -0.00000000000E+00  0.00000000000E+00  0.84023677291E+02  0.84023677291E+02  0.00000000000E+00 0.  1.
          2   -1    0    0  502    0  0.00000000000E+00 -0.00000000000E+00 -0.62494684250E+03  0.62494684250E+03  0.00000000000E+00 0. -1.
          6    1    1    2  502    0 -0.53388941934E+02 -0.13524615880E+02 -0.48864731616E+03  0.52095440678E+03  0.17200000000E+03 0. -1.
         -6    1    1    2    0  501  0.53388941934E+02  0.13524615880E+02 -0.52275849044E+02  0.18801611300E+03  0.17200000000E+03 0.  1.
</event>
<event>
 4    1  0.3196149E-002  0.1840484E+03  0.7818608E-02  0.1163941E+00
         -3   -1    0    0    0  501 -0.00000000000E+00  0.00000000000E+00  0.50974837485E+02  0.50974837485E+02  0.00000000000E+00 0.  1.
          3   -1    0    0  502    0  0.00000000000E+00 -0.00000000000E+00 -0.69173283598E+03  0.69173283598E+03  0.00000000000E+00 0. -1.
          6    1    1    2  502    0 -0.20710423981E+02 -0.62136161845E+02 -0.24672409547E+03  0.30780936236E+03  0.17200000000E+03 0.  1.
         -6    1    1    2    0  501  0.20710423981E+02  0.62136161845E+02 -0.39403390302E+03  0.43489831110E+03  0.17200000000E+03 0.  1.
</event>
<event>
 4    1  0.3196149E-002  0.1857341E+03  0.7818608E-02  0.1162366E+00
          2   -1    0    0  502    0  0.00000000000E+00  0.00000000000E+00  0.11028923384E+04  0.11028923384E+04  0.00000000000E+00 0. -1.
         -2   -1    0    0    0  501 -0.00000000000E+00 -0.00000000000E+00 -0.32093534143E+02  0.32093534143E+02  0.00000000000E+00 0.  1.
          6    1    1    2  502    0  0.38188009850E+02 -0.58777672975E+02  0.62581889092E+03  0.65279891480E+03  0.17200000000E+03 0. -1.
         -6    1    1    2    0  501 -0.38188009850E+02  0.58777672975E+02  0.44497991330E+03  0.48218695770E+03  0.17200000000E+03 0.  1.
</event>
<event>
 4    1  0.3196149E-002  0.2809353E+03  0.7818608E-02  0.1095179E+00
          2   -1    0    0  502    0  0.00000000000E+00  0.00000000000E+00  0.21206779074E+03  0.21206779074E+03  0.00000000000E+00 0. -1.
         -2   -1    0    0    0  501 -0.00000000000E+00 -0.00000000000E+00 -0.37811583364E+03  0.37811583364E+03  0.00000000000E+00 0.  1.
          6    1    1    2  502    0 -0.82654259533E+01 -0.22197368728E+03 -0.12003753884E+03  0.30550555779E+03  0.17200000000E+03 0. -1.
         -6    1    1    2    0  501  0.82654259533E+01  0.22197368728E+03 -0.46010504063E+02  0.28467806659E+03  0.17200000000E+03 0.  1.
</event>
<event>
 4    1  0.3196149E-002  0.1910505E+03  0.7818608E-02  0.1157517E+00
         -4   -1    0    0    0  501 -0.00000000000E+00  0.00000000000E+00  0.41805644581E+03  0.41805644581E+03  0.00000000000E+00 0.  1.
          4   -1    0    0  502    0  0.00000000000E+00 -0.00000000000E+00 -0.16389220778E+03  0.16389220778E+03  0.00000000000E+00 0. -1.
          6    1    1    2  502    0  0.60197418787E+02 -0.57380806512E+02 -0.71820713056E+02  0.20410414256E+03  0.17200000000E+03 0. -1.
         -6    1    1    2    0  501 -0.60197418787E+02  0.57380806512E+02  0.32598495109E+03  0.37784451103E+03  0.17200000000E+03 0.  1.
</event>
<event>
 4    1  0.3196149E-002  0.1822963E+03  0.7818608E-02  0.1165599E+00
          3   -1    0    0  502    0  0.00000000000E+00  0.00000000000E+00  0.58117224146E+02  0.58117224146E+02  0.00000000000E+00 0. -1.
         -3   -1    0    0    0  501 -0.00000000000E+00 -0.00000000000E+00 -0.66292941813E+03  0.66292941813E+03  0.00000000000E+00 0.  1.
          6    1    1    2  502    0 -0.18964456982E+02  0.57343596180E+02 -0.16874404958E+03  0.24840791638E+03  0.17200000000E+03 0. -1.
         -6    1    1    2    0  501  0.18964456982E+02 -0.57343596180E+02 -0.43606814441E+03  0.47263872590E+03  0.17200000000E+03 0.  1.
</event>
<event>
 4    1  0.3196149E-002  0.2406375E+03  0.7818608E-02  0.1119369E+00
          2   -1    0    0  502    0  0.00000000000E+00  0.00000000000E+00  0.46956549400E+03  0.46956549400E+03  0.00000000000E+00 0. -1.
         -2   -1    0    0    0  501 -0.00000000000E+00 -0.00000000000E+00 -0.12367477175E+03  0.12367477175E+03  0.00000000000E+00 0.  1.
          6    1    1    2  502    0  0.95579021985E+02 -0.13851733195E+03  0.18885191820E+03  0.30589450421E+03  0.17200000000E+03 0.  1.
         -6    1    1    2    0  501 -0.95579021985E+02  0.13851733195E+03  0.15703880405E+03  0.28734576153E+03  0.17200000000E+03 0.  1.
</event>
<event>
 4    1  0.3196149E-002  0.1731068E+03  0.7818608E-02  0.1174646E+00
         -2   -1    0    0    0  501 -0.00000000000E+00  0.00000000000E+00  0.41784916912E+02  0.41784916912E+02  0.00000000000E+00 0.  1.
          2   -1    0    0  502    0  0.00000000000E+00 -0.00000000000E+00 -0.13244433937E+04  0.13244433937E+04  0.00000000000E+00 0. -1.
          6    1    1    2  502    0  0.71013756241E+01 -0.18208026112E+02 -0.11038983667E+04  0.11173887263E+04  0.17200000000E+03 0. -1.
         -6    1    1    2    0  501 -0.71013756241E+01  0.18208026112E+02 -0.17876011015E+03  0.24883958434E+03  0.17200000000E+03 0.  1.
</event>
<event>
 4    1  0.3196149E-002  0.1920932E+03  0.7818608E-02  0.1156587E+00
          2   -1    0    0  502    0  0.00000000000E+00  0.00000000000E+00  0.68652108277E+03  0.68652108277E+03  0.00000000000E+00 0. -1.
         -2   -1    0    0    0  501 -0.00000000000E+00 -0.00000000000E+00 -0.80940048163E+02  0.80940048163E+02  0.00000000000E+00 0.  1.
          6    1    1    2  502    0  0.84909881428E+02 -0.10301551988E+02  0.52520229202E+03  0.55922916365E+03  0.17200000000E+03 0. -1.
         -6    1    1    2    0  501 -0.84909881428E+02  0.10301551988E+02  0.80378742586E+02  0.20823196728E+03  0.17200000000E+03 0.  1.
</event>
<event>
 4    1  0.3196149E-002  0.1735852E+03  0.7818608E-02  0.1174160E+00
          2   -1    0    0  502    0  0.00000000000E+00  0.00000000000E+00  0.23335201750E+04  0.23335201750E+04  0.00000000000E+00 0. -1.
         -2   -1    0    0    0  501 -0.00000000000E+00 -0.00000000000E+00 -0.12774453145E+03  0.12774453145E+03  0.00000000000E+00 0.  1.
          6    1    1    2  502    0 -0.23335803766E+02 -0.18032472486E+01  0.22696665569E+04  0.22762948163E+04  0.17200000000E+03 0. -1.
         -6    1    1    2    0  501  0.23335803766E+02  0.18032472486E+01 -0.63890913337E+02  0.18496989010E+03  0.17200000000E+03 0.  1.
</event>
<event>
 4    1  0.3196149E-002  0.2950948E+03  0.7818608E-02  0.1087719E+00
         -1   -1    0    0    0  501 -0.00000000000E+00  0.00000000000E+00  0.25775575873E+03  0.25775575873E+03  0.00000000000E+00 0.  1.
          1   -1    0    0  502    0  0.00000000000E+00 -0.00000000000E+00 -0.33805528914E+03  0.33805528914E+03  0.00000000000E+00 0. -1.
          6    1    1    2  502    0  0.61125339466E+02  0.23186345163E+03 -0.32683660004E+02  0.29689929093E+03  0.17200000000E+03 0. -1.
         -6    1    1    2    0  501 -0.61125339466E+02 -0.23186345163E+03 -0.47615870408E+02  0.29891175694E+03  0.17200000000E+03 0.  1.
</event>
<event>
 4    1  0.3196149E-002  0.3038833E+03  0.7818608E-02  0.1083315E+00
          1   -1    0    0  502    0  0.00000000000E+00  0.00000000000E+00  0.18451699969E+03  0.18451699969E+03  0.00000000000E+00 0. -1.
         -1   -1    0    0    0  501 -0.00000000000E+00 -0.00000000000E+00 -0.50062296006E+03  0.50062296006E+03  0.00000000000E+00 0.  1.
          6    1    1    2  502    0  0.41975585024E+02  0.24697997864E+03 -0.16405828882E+03  0.34534067487E+03  0.17200000000E+03 0. -1.
         -6    1    1    2    0  501 -0.41975585024E+02 -0.24697997864E+03 -0.15204767155E+03  0.33979928489E+03  0.17200000000E+03 0.  1.
</event>
<event>
 4    1  0.3196149E-002  0.2111689E+03  0.7818608E-02  0.1140644E+00
         -1   -1    0    0    0  501 -0.00000000000E+00  0.00000000000E+00  0.44044567220E+03  0.44044567220E+03  0.00000000000E+00 0.  1.
          1   -1    0    0  502    0  0.00000000000E+00 -0.00000000000E+00 -0.14286804872E+03  0.14286804872E+03  0.00000000000E+00 0. -1.
          6    1    1    2  502    0 -0.80135024876E+02 -0.92664331748E+02 -0.86380887651E+01  0.21134549242E+03  0.17200000000E+03 0. -1.
         -6    1    1    2    0  501  0.80135024876E+02  0.92664331748E+02  0.30621571224E+03  0.37196822850E+03  0.17200000000E+03 0.  1.
</event>
<event>
 4    1  0.3196149E-002  0.2656404E+03  0.7818608E-02  0.1103801E+00
          1   -1    0    0  502    0  0.00000000000E+00  0.00000000000E+00  0.15292379619E+04  0.15292379619E+04  0.00000000000E+00 0. -1.
         -1   -1    0    0    0  501 -0.00000000000E+00 -0.00000000000E+00 -0.79661254188E+02  0.79661254188E+02  0.00000000000E+00 0.  1.
          6    1    1    2  502    0 -0.61029592387E+02 -0.19301864582E+03  0.12465966315E+04  0.12745854112E+04  0.17200000000E+03 0. -1.
         -6    1    1    2    0  501  0.61029592387E+02  0.19301864582E+03  0.20298007615E+03  0.33431380483E+03  0.17200000000E+03 0.  1.
</event>
<event>
 4    1  0.3196149E-002  0.2554616E+03  0.7818608E-02  0.1109901E+00
          2   -1    0    0  502    0  0.00000000000E+00  0.00000000000E+00  0.56433952559E+03  0.56433952559E+03  0.00000000000E+00 0. -1.
         -2   -1    0    0    0  501 -0.00000000000E+00 -0.00000000000E+00 -0.12283894964E+03  0.12283894964E+03  0.00000000000E+00 0.  1.
          6    1    1    2  502    0  0.12886779972E+03 -0.13809313836E+03  0.30392371351E+03  0.39702676018E+03  0.17200000000E+03 0. -1.
         -6    1    1    2    0  501 -0.12886779972E+03  0.13809313836E+03  0.13757686244E+03  0.29015171505E+03  0.17200000000E+03 0. -1.
</event>
<event>
 4    1  0.3196149E-002  0.2067148E+03  0.7818608E-02  0.1144194E+00
         -1   -1    0    0    0  501 -0.00000000000E+00  0.00000000000E+00  0.22339594279E+02  0.22339594279E+02  0.00000000000E+00 0.  1.
          1   -1    0    0  502    0  0.00000000000E+00 -0.00000000000E+00 -0.19127942000E+04  0.19127942000E+04  0.00000000000E+00 0. -1.
          6    1    1    2  502    0 -0.55070082394E+02 -0.10056989145E+03 -0.94602889579E+03  0.96834998255E+03  0.17200000000E+03 0. -1.
         -6    1    1    2    0  501  0.55070082394E+02  0.10056989145E+03 -0.94442570998E+03  0.96678381177E+03  0.17200000000E+03 0. -1.
</event>
<event>
 4    1  0.3196149E-002  0.2157139E+03  0.7818608E-02  0.1137119E+00
         -3   -1    0    0    0  501 -0.00000000000E+00  0.00000000000E+00  0.13776924727E+03  0.13776924727E+03  0.00000000000E+00 0.  1.
          3   -1    0    0  502    0  0.00000000000E+00 -0.00000000000E+00 -0.38535172497E+03  0.38535172497E+03  0.00000000000E+00 0. -1.
          6    1    1    2  502    0 -0.86945588989E+02  0.96896492431E+02 -0.21571439870E+03  0.30506584125E+03  0.17200000000E+03 0. -1.
         -6    1    1    2    0  501  0.86945588989E+02 -0.96896492431E+02 -0.31868079001E+02  0.21805513099E+03  0.17200000000E+03 0. -1.
</event>
<event>
 4    1  0.3196149E-002  0.4903532E+03  0.7818608E-02  0.1016328E+00
         -2   -1    0    0    0  501 -0.00000000000E+00  0.00000000000E+00  0.15922482597E+03  0.15922482597E+03  0.00000000000E+00 0.  1.
          2   -1    0    0  502    0  0.00000000000E+00 -0.00000000000E+00 -0.16323395090E+04  0.16323395090E+04  0.00000000000E+00 0. -1.
          6    1    1    2  502    0  0.38376439317E+03  0.25216483909E+03 -0.49142874757E+03  0.69422505679E+03  0.17200000000E+03 0. -1.
         -6    1    1    2    0  501 -0.38376439317E+03 -0.25216483909E+03 -0.98168593542E+03  0.10973392781E+04  0.17200000000E+03 0.  1.
</event>
<event>
 4    1  0.3196149E-002  0.2350244E+03  0.7818608E-02  0.1123153E+00
          2   -1    0    0  502    0  0.00000000000E+00  0.00000000000E+00  0.10976827990E+04  0.10976827990E+04  0.00000000000E+00 0. -1.
         -2   -1    0    0    0  501 -0.00000000000E+00 -0.00000000000E+00 -0.73123512362E+02  0.73123512362E+02  0.00000000000E+00 0.  1.
          6    1    1    2  502    0 -0.14059096860E+03  0.76724511888E+02  0.18537724733E+03  0.29933458705E+03  0.17200000000E+03 0. -1.
         -6    1    1    2    0  501  0.14059096860E+03 -0.76724511888E+02  0.83918203934E+03  0.87147172434E+03  0.17200000000E+03 0.  1.
</event>
<event>
 4    1  0.3196149E-002  0.1785137E+03  0.7818608E-02  0.1169249E+00
          4   -1    0    0  502    0  0.00000000000E+00  0.00000000000E+00  0.10198094597E+04  0.10198094597E+04  0.00000000000E+00 0. -1.
         -4   -1    0    0    0  501 -0.00000000000E+00 -0.00000000000E+00 -0.31713301632E+02  0.31713301632E+02  0.00000000000E+00 0.  1.
          6    1    1    2  502    0  0.47173737205E+02  0.76017143222E+01  0.55772329969E+03  0.58559578769E+03  0.17200000000E+03 0. -1.
         -6    1    1    2    0  501 -0.47173737205E+02 -0.76017143222E+01  0.43037285843E+03  0.46592697369E+03  0.17200000000E+03 0.  1.
</event>
<event>
 4    1  0.3196149E-002  0.2880114E+03  0.7818608E-02  0.1091392E+00
         -2   -1    0    0    0  501 -0.00000000000E+00  0.00000000000E+00  0.24124657603E+03  0.24124657603E+03  0.00000000000E+00 0.  1.
          2   -1    0    0  502    0  0.00000000000E+00 -0.00000000000E+00 -0.35939527396E+03  0.35939527396E+03  0.00000000000E+00 0. -1.
          6    1    1    2  502    0  0.22846943598E+03  0.34180276373E+02  0.34023231163E+01  0.28803150917E+03  0.17200000000E+03 0.  1.
         -6    1    1    2    0  501 -0.22846943598E+03 -0.34180276373E+02 -0.12155102104E+03  0.31261034082E+03  0.17200000000E+03 0.  1.
</event>
<event>
 4    1  0.3196149E-002  0.1940001E+03  0.7818608E-02  0.1154902E+00
         -2   -1    0    0    0  501 -0.00000000000E+00  0.00000000000E+00  0.11017267178E+03  0.11017267178E+03  0.00000000000E+00 0.  1.
          2   -1    0    0  502    0  0.00000000000E+00 -0.00000000000E+00 -0.14203778233E+04  0.14203778233E+04  0.00000000000E+00 0. -1.
          6    1    1    2  502    0 -0.78122291920E+02  0.44146823204E+02 -0.13220318978E+04  0.13361902459E+04  0.17200000000E+03 0. -1.
         -6    1    1    2    0  501  0.78122291920E+02 -0.44146823204E+02  0.11826746353E+02  0.19436024908E+03  0.17200000000E+03 0.  1.
</event>
<event>
 4    1  0.3196149E-002  0.2071942E+03  0.7818608E-02  0.1143807E+00
          1   -1    0    0  502    0  0.00000000000E+00  0.00000000000E+00  0.72985094022E+03  0.72985094022E+03  0.00000000000E+00 0. -1.
         -1   -1    0    0    0  501 -0.00000000000E+00 -0.00000000000E+00 -0.59144381441E+02  0.59144381441E+02  0.00000000000E+00 0.  1.
          6    1    1    2  502    0  0.53316489690E+02  0.10248305674E+03  0.30611249957E+03  0.36964075450E+03  0.17200000000E+03 0. -1.
         -6    1    1    2    0  501 -0.53316489690E+02 -0.10248305674E+03  0.36459405920E+03  0.41935456716E+03  0.17200000000E+03 0.  1.
</event>
<event>
 4    1  0.3196149E-002  0.2789293E+03  0.7818608E-02  0.1096275E+00
          1   -1    0    0  502    0  0.00000000000E+00  0.00000000000E+00  0.35403998254E+03  0.35403998254E+03  0.00000000000E+00 0. -1.
         -1   -1    0    0    0  501 -0.00000000000E+00 -0.00000000000E+00 -0.29425814071E+03  0.29425814071E+03  0.00000000000E+00 0.  1.
          6    1    1    2  502    0 -0.80848153764E+02 -0.20415951479E+03  0.19299774715E+03  0.33918971366E+03  0.17200000000E+03 0. -1.
         -6    1    1    2    0  501  0.80848153764E+02  0.20415951479E+03 -0.13321590532E+03  0.30910840959E+03  0.17200000000E+03 0.  1.
</event>
<event>
 4    1  0.3196149E-002  0.4272579E+03  0.7818608E-02  0.1034730E+00
          1   -1    0    0  502    0  0.00000000000E+00  0.00000000000E+00  0.36666989094E+03  0.36666989094E+03  0.00000000000E+00 0. -1.
         -1   -1    0    0    0  501 -0.00000000000E+00 -0.00000000000E+00 -0.93597715859E+03  0.93597715859E+03  0.00000000000E+00 0.  1.
          6    1    1    2  502    0 -0.21746467985E+02  0.39050274660E+03  0.16096216392E+03  0.45657214347E+03  0.17200000000E+03 0. -1.
         -6    1    1    2    0  501  0.21746467985E+02 -0.39050274660E+03 -0.73026943157E+03  0.84607490606E+03  0.17200000000E+03 0.  1.
</event>
<event>
 4    1  0.3196149E-002  0.2410582E+03  0.7818608E-02  0.1119090E+00
         -1   -1    0    0    0  501 -0.00000000000E+00  0.00000000000E+00  0.41521183116E+03  0.41521183116E+03  0.00000000000E+00 0.  1.
          1   -1    0    0  502    0  0.00000000000E+00 -0.00000000000E+00 -0.14035901466E+03  0.14035901466E+03  0.00000000000E+00 0. -1.
          6    1    1    2  502    0  0.16561445441E+03 -0.33119792673E+02  0.15241421837E+03  0.28520021412E+03  0.17200000000E+03 0.  1.
         -6    1    1    2    0  501 -0.16561445441E+03  0.33119792673E+02  0.12243859812E+03  0.27037063170E+03  0.17200000000E+03 0.  1.
</event>
<event>
 4    1  0.3196149E-002  0.2390099E+03  0.7818608E-02  0.1120454E+00
          2   -1    0    0  502    0  0.00000000000E+00  0.00000000000E+00  0.82526819578E+03  0.82526819578E+03  0.00000000000E+00 0. -1.
         -2   -1    0    0    0  501 -0.00000000000E+00 -0.00000000000E+00 -0.87416528445E+02  0.87416528445E+02  0.00000000000E+00 0.  1.
          6    1    1    2  502    0  0.76385041062E+02  0.14733315411E+03  0.57712482207E+03  0.62465894138E+03  0.17200000000E+03 0. -1.
         -6    1    1    2    0  501 -0.76385041062E+02 -0.14733315411E+03  0.16072684527E+03  0.28802578285E+03  0.17200000000E+03 0.  1.
</event>
<event>
 4    1  0.3196149E-002  0.1833416E+03  0.7818608E-02  0.1164608E+00
          2   -1    0    0  502    0  0.00000000000E+00  0.00000000000E+00  0.30340888306E+03  0.30340888306E+03  0.00000000000E+00 0. -1.
         -2   -1    0    0    0  501 -0.00000000000E+00 -0.00000000000E+00 -0.13502825196E+03  0.13502825196E+03  0.00000000000E+00 0.  1.
          6    1    1    2  502    0  0.57705518085E+02 -0.26461587519E+02  0.17707224797E+03  0.25488962990E+03  0.17200000000E+03 0. -1.
         -6    1    1    2    0  501 -0.57705518085E+02  0.26461587519E+02 -0.86916168609E+01  0.18354750512E+03  0.17200000000E+03 0.  1.
</event>
<event>
 4    1  0.3196149E-002  0.4055176E+03  0.7818608E-02  0.1041886E+00
          1   -1    0    0  502    0  0.00000000000E+00  0.00000000000E+00  0.25723421515E+03  0.25723421515E+03  0.00000000000E+00 0. -1.
         -1   -1    0    0    0  501 -0.00000000000E+00 -0.00000000000E+00 -0.19634526555E+04  0.19634526555E+04  0.00000000000E+00 0.  1.
          6    1    1    2  502    0  0.36527485782E+03 -0.37878880779E+02  0.58732629531E+02  0.40974876832E+03  0.17200000000E+03 0. -1.
         -6    1    1    2    0  501 -0.36527485782E+03  0.37878880779E+02 -0.17649510699E+04  0.18109381023E+04  0.17200000000E+03 0.  1.
</event>
<event>
 4    1  0.3196149E-002  0.3145066E+03  0.7818608E-02  0.1078206E+00
         -2   -1    0    0    0  501 -0.00000000000E+00  0.00000000000E+00  0.11850899562E+03  0.11850899562E+03  0.00000000000E+00 0.  1.
          2   -1    0    0  502    0  0.00000000000E+00 -0.00000000000E+00 -0.20232553969E+04  0.20232553969E+04  0.00000000000E+00 0. -1.
          6    1    1    2  502    0 -0.25419450401E+03  0.68669926329E+02 -0.17731665902E+04  0.18008426253E+04  0.17200000000E+03 0. -1.
         -6    1    1    2    0  501  0.25419450401E+03 -0.68669926329E+02 -0.13157981107E+03  0.34092176717E+03  0.17200000000E+03 0.  1.
</event>
<event>
 4    1  0.3196149E-002  0.1739675E+03  0.7818608E-02  0.1173772E+00
         -2   -1    0    0    0  501 -0.00000000000E+00  0.00000000000E+00  0.38785558053E+03  0.38785558053E+03  0.00000000000E+00 0.  1.
          2   -1    0    0  502    0  0.00000000000E+00 -0.00000000000E+00 -0.83526838219E+02  0.83526838219E+02  0.00000000000E+00 0. -1.
          6    1    1    2  502    0 -0.18747329677E+02 -0.18145074934E+02  0.21262222150E+03  0.27472334301E+03  0.17200000000E+03 0.  1.
         -6    1    1    2    0  501  0.18747329677E+02  0.18145074934E+02  0.91706520807E+02  0.19665907574E+03  0.17200000000E+03 0. -1.
</event>
<event>
 4    1  0.3196149E-002  0.1931475E+03  0.7818608E-02  0.1155653E+00
          1   -1    0    0  502    0  0.00000000000E+00  0.00000000000E+00  0.47100472811E+03  0.47100472811E+03  0.00000000000E+00 0. -1.
         -1   -1    0    0    0  501 -0.00000000000E+00 -0.00000000000E+00 -0.10982999442E+03  0.10982999442E+03  0.00000000000E+00 0.  1.
          6    1    1    2  502    0  0.13117587758E+02 -0.86890057552E+02  0.33394300460E+03  0.38577698678E+03  0.17200000000E+03 0.  1.
         -6    1    1    2    0  501 -0.13117587758E+02  0.86890057552E+02  0.27231729092E+02  0.19505773576E+03  0.17200000000E+03 0.  1.
</event>
<event>
 4    1  0.3196149E-002  0.2171866E+03  0.7818608E-02  0.1135998E+00
          2   -1    0    0  502    0  0.00000000000E+00  0.00000000000E+00  0.18011509381E+03  0.18011509381E+03  0.00000000000E+00 0. -1.
         -2   -1    0    0    0  501 -0.00000000000E+00 -0.00000000000E+00 -0.29526641971E+03  0.29526641971E+03  0.00000000000E+00 0.  1.
          6    1    1    2  502    0 -0.13902937073E+02  0.13188145612E+03 -0.13749228575E+03  0.25704890346E+03  0.17200000000E+03 0.  1.
         -6    1    1    2    0  501  0.13902937073E+02 -0.13188145612E+03  0.22340959852E+02  0.21833261006E+03  0.17200000000E+03 0.  1.
</event>
<event>
 4    1  0.3196149E-002  0.1728570E+03  0.7818608E-02  0.1174901E+00
         -2   -1    0    0    0  501 -0.00000000000E+00  0.00000000000E+00  0.10389694900E+03  0.10389694900E+03  0.00000000000E+00 0.  1.
          2   -1    0    0  502    0  0.00000000000E+00 -0.00000000000E+00 -0.44199714184E+03  0.44199714184E+03  0.00000000000E+00 0. -1.
          6    1    1    2  502    0 -0.94912175964E+00  0.17164680581E+02 -0.77238539959E+01  0.17302943395E+03  0.17200000000E+03 0.  1.
         -6    1    1    2    0  501  0.94912175964E+00 -0.17164680581E+02 -0.33037633884E+03  0.37286465689E+03  0.17200000000E+03 0. -1.
</event>
<event>
 4    1  0.3196149E-002  0.1723525E+03  0.7818608E-02  0.1175417E+00
          2   -1    0    0  502    0  0.00000000000E+00  0.00000000000E+00  0.30501362261E+04  0.30501362261E+04  0.00000000000E+00 0. -1.
         -2   -1    0    0    0  501 -0.00000000000E+00 -0.00000000000E+00 -0.16757761422E+02  0.16757761422E+02  0.00000000000E+00 0.  1.
          6    1    1    2  502    0 -0.45880547213E+01  0.10016744363E+02  0.25090964277E+04  0.25150089997E+04  0.17200000000E+03 0. -1.
         -6    1    1    2    0  501  0.45880547213E+01 -0.10016744363E+02  0.52428203703E+03  0.55188498781E+03  0.17200000000E+03 0.  1.
</event>
<event>
 4    1  0.3196149E-002  0.2381098E+03  0.7818608E-02  0.1121058E+00
          2   -1    0    0  502    0  0.00000000000E+00  0.00000000000E+00  0.91070992826E+03  0.91070992826E+03  0.00000000000E+00 0. -1.
         -2   -1    0    0    0  501 -0.00000000000E+00 -0.00000000000E+00 -0.77551560213E+02  0.77551560213E+02  0.00000000000E+00 0.  1.
          6    1    1    2  502    0  0.22986886562E+02  0.16304566483E+03  0.63603287300E+03  0.67914218049E+03  0.17200000000E+03 0. -1.
         -6    1    1    2    0  501 -0.22986886562E+02 -0.16304566483E+03  0.19712549505E+03  0.30911930799E+03  0.17200000000E+03 0.  1.
</event>
<event>
 4    1  0.3196149E-002  0.1855382E+03  0.7818608E-02  0.1162548E+00
         -2   -1    0    0    0  501 -0.00000000000E+00  0.00000000000E+00  0.30117831846E+02  0.30117831846E+02  0.00000000000E+00 0.  1.
          2   -1    0    0  502    0  0.00000000000E+00 -0.00000000000E+00 -0.15427792847E+04  0.15427792847E+04  0.00000000000E+00 0. -1.
          6    1    1    2  502    0  0.68043910359E+02  0.14506744111E+02 -0.11566747019E+04  0.11714609619E+04  0.17200000000E+03 0. -1.
         -6    1    1    2    0  501 -0.68043910359E+02 -0.14506744111E+02 -0.35598675097E+03  0.40143615461E+03  0.17200000000E+03 0.  1.
</event>
<event>
 4    1  0.3196149E-002  0.3177215E+03  0.7818608E-02  0.1076703E+00
          1   -1    0    0  502    0  0.00000000000E+00  0.00000000000E+00  0.26650313031E+04  0.26650313031E+04  0.00000000000E+00 0. -1.
         -1   -1    0    0    0  501 -0.00000000000E+00 -0.00000000000E+00 -0.13340561950E+03  0.13340561950E+03  0.00000000000E+00 0.  1.
          6    1    1    2  502    0  0.15895630115E+03 -0.21469943455E+03  0.24498413990E+04  0.24703582398E+04  0.17200000000E+03 0. -1.
         -6    1    1    2    0  501 -0.15895630115E+03  0.21469943455E+03  0.81784284594E+02  0.32807868275E+03  0.17200000000E+03 0.  1.
</event>
<event>
 4    1  0.3196149E-002  0.4899504E+03  0.7818608E-02  0.1016436E+00
         -2   -1    0    0    0  501 -0.00000000000E+00  0.00000000000E+00  0.47777721814E+03  0.47777721814E+03  0.00000000000E+00 0.  1.
          2   -1    0    0  502    0  0.00000000000E+00 -0.00000000000E+00 -0.64488975773E+03  0.64488975773E+03  0.00000000000E+00 0. -1.
          6    1    1    2  502    0 -0.38216187694E+03  0.25381038436E+03 -0.34738285642E+03  0.60060491201E+03  0.17200000000E+03 0. -1.
         -6    1    1    2    0  501  0.38216187694E+03 -0.25381038436E+03  0.18027031683E+03  0.52206206387E+03  0.17200000000E+03 0.  1.
</event>
<event>
 4    1  0.3196149E-002  0.2154479E+03  0.7818608E-02  0.1137323E+00
          1   -1    0    0  502    0  0.00000000000E+00  0.00000000000E+00  0.83334502683E+03  0.83334502683E+03  0.00000000000E+00 0. -1.
         -1   -1    0    0    0  501 -0.00000000000E+00 -0.00000000000E+00 -0.70848156766E+02  0.70848156766E+02  0.00000000000E+00 0.  1.
          6    1    1    2  502    0  0.39506609586E+02  0.12358402683E+03  0.17220389141E+03  0.27581146478E+03  0.17200000000E+03 0. -1.
         -6    1    1    2    0  501 -0.39506609586E+02 -0.12358402683E+03  0.59029297866E+03  0.62838171881E+03  0.17200000000E+03 0. -1.
</event>
<event>
 4    1  0.3196149E-002  0.1734075E+03  0.7818608E-02  0.1174340E+00
          2   -1    0    0  502    0  0.00000000000E+00  0.00000000000E+00  0.19018149210E+04  0.19018149210E+04  0.00000000000E+00 0. -1.
         -2   -1    0    0    0  501 -0.00000000000E+00 -0.00000000000E+00 -0.39108809336E+02  0.39108809336E+02  0.00000000000E+00 0.  1.
          6    1    1    2  502    0  0.15133273769E+01 -0.21996715113E+02  0.16803775594E+04  0.16893013017E+04  0.17200000000E+03 0. -1.
         -6    1    1    2    0  501 -0.15133273769E+01  0.21996715113E+02  0.18232855220E+03  0.25162242861E+03  0.17200000000E+03 0.  1.
</event>
<event>
 4    1  0.3196149E-002  0.2837535E+03  0.7818608E-02  0.1093656E+00
          2   -1    0    0  502    0  0.00000000000E+00  0.00000000000E+00  0.46834828167E+03  0.46834828167E+03  0.00000000000E+00 0. -1.
         -2   -1    0    0    0  501 -0.00000000000E+00 -0.00000000000E+00 -0.26320575767E+03  0.26320575767E+03  0.00000000000E+00 0.  1.
          6    1    1    2  502    0  0.11904220751E+03 -0.19173159820E+03  0.31798943738E+03  0.42618462572E+03  0.17200000000E+03 0. -1.
         -6    1    1    2    0  501 -0.11904220751E+03  0.19173159820E+03 -0.11284691337E+03  0.30536941362E+03  0.17200000000E+03 0.  1.
</event>
<event>
 4    1  0.3196149E-002  0.3480274E+03  0.7818608E-02  0.1063428E+00
          2   -1    0    0  502    0  0.00000000000E+00  0.00000000000E+00  0.32730808874E+03  0.32730808874E+03  0.00000000000E+00 0. -1.
         -2   -1    0    0    0  501 -0.00000000000E+00 -0.00000000000E+00 -0.50573014089E+03  0.50573014089E+03  0.00000000000E+00 0.  1.
          6    1    1    2  502    0 -0.18828136784E+03  0.23683160394E+03  0.12652384104E+03  0.37031252268E+03  0.17200000000E+03 0. -1.
         -6    1    1    2    0  501  0.18828136784E+03 -0.23683160394E+03 -0.30494589319E+03  0.46272570696E+03  0.17200000000E+03 0.  1.
</event>
<event>
 4    1  0.3196149E-002  0.1889444E+03  0.7818608E-02  0.1159417E+00
          2   -1    0    0  502    0  0.00000000000E+00  0.00000000000E+00  0.26323921957E+04  0.26323921957E+04  0.00000000000E+00 0. -1.
         -2   -1    0    0    0  501 -0.00000000000E+00 -0.00000000000E+00 -0.19829855414E+02  0.19829855414E+02  0.00000000000E+00 0.  1.
          6    1    1    2  502    0  0.37303890599E+02 -0.68734383400E+02  0.20518474755E+04  0.20605285872E+04  0.17200000000E+03 0. -1.
         -6    1    1    2    0  501 -0.37303890599E+02  0.68734383400E+02  0.56071486480E+03  0.59169346398E+03  0.17200000000E+03 0.  1.
</event>
<event>
 4    1  0.3196149E-002  0.2342150E+03  0.7818608E-02  0.1123708E+00
          1   -1    0    0  502    0  0.00000000000E+00  0.00000000000E+00  0.10040818367E+03  0.10040818367E+03  0.00000000000E+00 0. -1.
         -1   -1    0    0    0  501 -0.00000000000E+00 -0.00000000000E+00 -0.56828871542E+03  0.56828871542E+03  0.00000000000E+00 0.  1.
          6    1    1    2  502    0  0.14137759532E+03 -0.72698259470E+02 -0.16822694590E+03  0.28836949685E+03  0.17200000000E+03 0.  1.
         -6    1    1    2    0  501 -0.14137759532E+03  0.72698259470E+02 -0.29965358584E+03  0.38032740224E+03  0.17200000000E+03 0.  1.
</event>
<event>
 4    1  0.3196149E-002  0.1724003E+03  0.7818608E-02  0.1175368E+00
         -2   -1    0    0    0  501 -0.00000000000E+00  0.00000000000E+00  0.29335251383E+03  0.29335251383E+03  0.00000000000E+00 0.  1.
          2   -1    0    0  502    0  0.00000000000E+00 -0.00000000000E+00 -0.16562416191E+03  0.16562416191E+03  0.00000000000E+00 0. -1.
          6    1    1    2  502    0 -0.24234403583E+01  0.11488409824E+02  0.20686069073E+03  0.26928275472E+03  0.17200000000E+03 0.  1.
         -6    1    1    2    0  501  0.24234403583E+01 -0.11488409824E+02 -0.79132338810E+02  0.18969392101E+03  0.17200000000E+03 0. -1.
</event>
<event>
 4    1  0.3196149E-002  0.2634565E+03  0.7818608E-02  0.1105084E+00
         -2   -1    0    0    0  501 -0.00000000000E+00  0.00000000000E+00  0.10087147769E+03  0.10087147769E+03  0.00000000000E+00 0.  1.
          2   -1    0    0  502    0  0.00000000000E+00 -0.00000000000E+00 -0.15983110687E+04  0.15983110687E+04  0.00000000000E+00 0. -1.
          6    1    1    2  502    0  0.92362348558E+02  0.17690255014E+03 -0.13898574275E+04  0.14146070071E+04  0.17200000000E+03 0. -1.
         -6    1    1    2    0  501 -0.92362348558E+02 -0.17690255014E+03 -0.10758216351E+03  0.28457553932E+03  0.17200000000E+03 0.  1.
</event>
<event>
 4    1  0.3196149E-002  0.3927761E+03  0.7818608E-02  0.1046310E+00
         -2   -1    0    0    0  501 -0.00000000000E+00  0.00000000000E+00  0.39326801835E+03  0.39326801835E+03  0.00000000000E+00 0.  1.
          2   -1    0    0  502    0  0.00000000000E+00 -0.00000000000E+00 -0.54803864216E+03  0.54803864216E+03  0.00000000000E+00 0. -1.
          6    1    1    2  502    0  0.14642913241E+03 -0.32132158532E+03 -0.32829358357E+03  0.51190793022E+03  0.17200000000E+03 0. -1.
         -6    1    1    2    0  501 -0.14642913241E+03  0.32132158532E+03  0.17352295977E+03  0.42939873029E+03  0.17200000000E+03 0.  1.
</event>
<event>
 4    1  0.3196149E-002  0.2497207E+03  0.7818608E-02  0.1113481E+00
         -1   -1    0    0    0  501 -0.00000000000E+00  0.00000000000E+00  0.12050308683E+03  0.12050308683E+03  0.00000000000E+00 0.  1.
          1   -1    0    0  502    0  0.00000000000E+00 -0.00000000000E+00 -0.53795177929E+03  0.53795177929E+03  0.00000000000E+00 0. -1.
          6    1    1    2  502    0 -0.19305584717E+01 -0.18103231699E+03 -0.27291663978E+03  0.36992420727E+03  0.17200000000E+03 0. -1.
         -6    1    1    2    0  501  0.19305584717E+01  0.18103231699E+03 -0.14453205268E+03  0.28853065886E+03  0.17200000000E+03 0.  1.
</event>
<event>
 4    1  0.3196149E-002  0.4594409E+03  0.7818608E-02  0.1024943E+00
         -1   -1    0    0    0  501 -0.00000000000E+00  0.00000000000E+00  0.17540795991E+03  0.17540795991E+03  0.00000000000E+00 0.  1.
          1   -1    0    0  502    0  0.00000000000E+00 -0.00000000000E+00 -0.24799995615E+04  0.24799995615E+04  0.00000000000E+00 0. -1.
          6    1    1    2  502    0  0.14586646235E+03  0.40028105018E+03 -0.21048785754E+04  0.21544372261E+04  0.17200000000E+03 0. -1.
         -6    1    1    2    0  501 -0.14586646235E+03 -0.40028105018E+03 -0.19971302620E+03  0.50097029533E+03  0.17200000000E+03 0.  1.
</event>
<event>
 4    1  0.3196149E-002  0.1974806E+03  0.7818608E-02  0.1151882E+00
          3   -1    0    0  502    0  0.00000000000E+00  0.00000000000E+00  0.59715232681E+02  0.59715232681E+02  0.00000000000E+00 0. -1.
         -3   -1    0    0    0  501 -0.00000000000E+00 -0.00000000000E+00 -0.65878317026E+03  0.65878317026E+03  0.00000000000E+00 0.  1.
          6    1    1    2  502    0  0.26744625414E+01 -0.96992011581E+02 -0.33297068818E+03  0.38712799207E+03  0.17200000000E+03 0. -1.
         -6    1    1    2    0  501 -0.26744625414E+01  0.96992011581E+02 -0.26609724940E+03  0.33137041087E+03  0.17200000000E+03 0.  1.
</event>
<event>
 4    1  0.3196149E-002  0.2244624E+03  0.7818608E-02  0.1130599E+00
         -1   -1    0    0    0  501 -0.00000000000E+00  0.00000000000E+00  0.52831552511E+03  0.52831552511E+03  0.00000000000E+00 0.  1.
          1   -1    0    0  502    0  0.00000000000E+00 -0.00000000000E+00 -0.12074786932E+03  0.12074786932E+03  0.00000000000E+00 0. -1.
          6    1    1    2  502    0 -0.41308297734E+02 -0.13817742150E+03  0.54992168513E+02  0.23110065745E+03  0.17200000000E+03 0. -1.
         -6    1    1    2    0  501  0.41308297734E+02  0.13817742150E+03  0.35257548727E+03  0.41796273698E+03  0.17200000000E+03 0.  1.
</event>
<event>
 4    1  0.3196149E-002  0.1882640E+03  0.7818608E-02  0.1160036E+00
         -2   -1    0    0    0  501 -0.00000000000E+00  0.00000000000E+00  0.53751782076E+02  0.53751782076E+02  0.00000000000E+00 0.  1.
          2   -1    0    0  502    0  0.00000000000E+00 -0.00000000000E+00 -0.74908663297E+03  0.74908663297E+03  0.00000000000E+00 0. -1.
          6    1    1    2  502    0 -0.34002961654E+02  0.68579361143E+02 -0.20876085738E+03  0.28111283455E+03  0.17200000000E+03 0.  1.
         -6    1    1    2    0  501  0.34002961654E+02 -0.68579361143E+02 -0.48657399351E+03  0.52172558049E+03  0.17200000000E+03 0. -1.
</event>
<event>
 4    1  0.3196149E-002  0.1995532E+03  0.7818608E-02  0.1150117E+00
         -2   -1    0    0    0  501 -0.00000000000E+00  0.00000000000E+00  0.32036174989E+03  0.32036174989E+03  0.00000000000E+00 0.  1.
          2   -1    0    0  502    0  0.00000000000E+00 -0.00000000000E+00 -0.15624979546E+03  0.15624979546E+03  0.00000000000E+00 0. -1.
          6    1    1    2  502    0  0.91718579013E+02  0.42722009146E+02  0.18981365377E+03  0.27541004150E+03  0.17200000000E+03 0.  1.
         -6    1    1    2    0  501 -0.91718579013E+02 -0.42722009146E+02 -0.25701699342E+02  0.20120150385E+03  0.17200000000E+03 0. -1.
</event>
<event>
 4    1  0.3196149E-002  0.2480520E+03  0.7818608E-02  0.1114542E+00
         -2   -1    0    0    0  501 -0.00000000000E+00  0.00000000000E+00  0.22876782550E+03  0.22876782550E+03  0.00000000000E+00 0.  1.
          2   -1    0    0  502    0  0.00000000000E+00 -0.00000000000E+00 -0.29086858505E+03  0.29086858505E+03  0.00000000000E+00 0. -1.
          6    1    1    2  502    0  0.17678733782E+02 -0.17785734553E+03  0.40253297651E+02  0.25129683834E+03  0.17200000000E+03 0. -1.
         -6    1    1    2    0  501 -0.17678733782E+02  0.17785734553E+03 -0.10235405721E+03  0.26833957221E+03  0.17200000000E+03 0.  1.
</event>
<event>
 4    1  0.3196149E-002  0.2907831E+03  0.7818608E-02  0.1089941E+00
          2   -1    0    0  502    0  0.00000000000E+00  0.00000000000E+00  0.10685364042E+04  0.10685364042E+04  0.00000000000E+00 0. -1.
         -2   -1    0    0    0  501 -0.00000000000E+00 -0.00000000000E+00 -0.79722884170E+03  0.79722884170E+03  0.00000000000E+00 0.  1.
          6    1    1    2  502    0  0.15303309796E+03 -0.17762788964E+03  0.10210286452E+04  0.10616281319E+04  0.17200000000E+03 0. -1.
         -6    1    1    2    0  501 -0.15303309796E+03  0.17762788964E+03 -0.74972108267E+03  0.80413711396E+03  0.17200000000E+03 0.  1.
</event>
<event>
 4    1  0.3196149E-002  0.5289364E+03  0.7818608E-02  0.1006490E+00
         -2   -1    0    0    0  501 -0.00000000000E+00  0.00000000000E+00  0.54073967873E+03  0.54073967873E+03  0.00000000000E+00 0.  1.
          2   -1    0    0  502    0  0.00000000000E+00 -0.00000000000E+00 -0.68792737003E+03  0.68792737003E+03  0.00000000000E+00 0. -1.
          6    1    1    2  502    0 -0.43517985111E+02  0.49829301421E+03 -0.37946721290E+03  0.65097550546E+03  0.17200000000E+03 0. -1.
         -6    1    1    2    0  501  0.43517985111E+02 -0.49829301421E+03  0.23227952160E+03  0.57769154330E+03  0.17200000000E+03 0.  1.
</event>
<event>
 4    1  0.3196149E-002  0.3134722E+03  0.7818608E-02  0.1078693E+00
          2   -1    0    0  502    0  0.00000000000E+00  0.00000000000E+00  0.31186823311E+04  0.31186823311E+04  0.00000000000E+00 0. -1.
         -2   -1    0    0    0  501 -0.00000000000E+00 -0.00000000000E+00 -0.32231960608E+02  0.32231960608E+02  0.00000000000E+00 0.  1.
          6    1    1    2  502    0 -0.26033619376E+03 -0.30098092530E+02  0.13071842357E+04  0.13442453106E+04  0.17200000000E+03 0.  1.
         -6    1    1    2    0  501  0.26033619376E+03  0.30098092530E+02  0.17792661347E+04  0.18066689811E+04  0.17200000000E+03 0. -1.
</event>
<event>
 4    1  0.3196149E-002  0.3303738E+03  0.7818608E-02  0.1070972E+00
          3   -1    0    0  502    0  0.00000000000E+00  0.00000000000E+00  0.47578148244E+03  0.47578148244E+03  0.00000000000E+00 0. -1.
         -3   -1    0    0    0  501 -0.00000000000E+00 -0.00000000000E+00 -0.28400542853E+03  0.28400542853E+03  0.00000000000E+00 0.  1.
          6    1    1    2  502    0 -0.88879344581E+02  0.26770004521E+03  0.26245727906E+03  0.42193681450E+03  0.17200000000E+03 0. -1.
         -6    1    1    2    0  501  0.88879344581E+02 -0.26770004521E+03 -0.70681225144E+02  0.33785009647E+03  0.17200000000E+03 0. -1.
</event>
<event>
 4    1  0.3196149E-002  0.2038199E+03  0.7818608E-02  0.1146556E+00
         -4   -1    0    0    0  501 -0.00000000000E+00  0.00000000000E+00  0.87011016650E+03  0.87011016650E+03  0.00000000000E+00 0.  1.
          4   -1    0    0  502    0  0.00000000000E+00 -0.00000000000E+00 -0.49151961213E+02  0.49151961213E+02  0.00000000000E+00 0. -1.
          6    1    1    2  502    0  0.96750120107E+02 -0.50970363410E+02  0.33268797688E+03  0.39015875442E+03  0.17200000000E+03 0. -1.
         -6    1    1    2    0  501 -0.96750120107E+02  0.50970363410E+02  0.48827022841E+03  0.52910337330E+03  0.17200000000E+03 0.  1.
</event>
<event>
 4    1  0.3196149E-002  0.2110083E+03  0.7818608E-02  0.1140770E+00
          1   -1    0    0  502    0  0.00000000000E+00  0.00000000000E+00  0.20491433633E+03  0.20491433633E+03  0.00000000000E+00 0. -1.
         -1   -1    0    0    0  501 -0.00000000000E+00 -0.00000000000E+00 -0.28659268842E+03  0.28659268842E+03  0.00000000000E+00 0.  1.
          6    1    1    2  502    0  0.79073391129E+02 -0.93208979759E+02 -0.16169356323E+03  0.26583702429E+03  0.17200000000E+03 0. -1.
         -6    1    1    2    0  501 -0.79073391129E+02  0.93208979759E+02  0.80015211138E+02  0.22567000046E+03  0.17200000000E+03 0. -1.
</event>
<event>
 4    1  0.3196149E-002  0.2491547E+03  0.7818608E-02  0.1113840E+00
         -1   -1    0    0    0  501 -0.00000000000E+00  0.00000000000E+00  0.67156133869E+03  0.67156133869E+03  0.00000000000E+00 0.  1.
          1   -1    0    0  502    0  0.00000000000E+00 -0.00000000000E+00 -0.10507939809E+03  0.10507939809E+03  0.00000000000E+00 0. -1.
          6    1    1    2  502    0 -0.11876994499E+03  0.13560143997E+03  0.14855504908E+03  0.29008042499E+03  0.17200000000E+03 0. -1.
         -6    1    1    2    0  501  0.11876994499E+03 -0.13560143997E+03  0.41792689152E+03  0.48656031179E+03  0.17200000000E+03 0.  1.
</event>
<event>
 4    1  0.3196149E-002  0.1968888E+03  0.7818608E-02  0.1152391E+00
         -2   -1    0    0    0  501 -0.00000000000E+00  0.00000000000E+00  0.33125878917E+02  0.33125878917E+02  0.00000000000E+00 0.  1.
          2   -1    0    0  502    0  0.00000000000E+00 -0.00000000000E+00 -0.11798302908E+04  0.11798302908E+04  0.00000000000E+00 0. -1.
          6    1    1    2  502    0 -0.95734023162E+02  0.40235523348E+01 -0.51866999140E+03  0.55478261702E+03  0.17200000000E+03 0. -1.
         -6    1    1    2    0  501  0.95734023162E+02 -0.40235523348E+01 -0.62803442049E+03  0.65817355271E+03  0.17200000000E+03 0. -1.
</event>
<event>
 4    1  0.3196149E-002  0.3946002E+03  0.7818608E-02  0.1045666E+00
         -2   -1    0    0    0  501 -0.00000000000E+00  0.00000000000E+00  0.48446793615E+02  0.48446793615E+02  0.00000000000E+00 0.  1.
          2   -1    0    0  502    0  0.00000000000E+00 -0.00000000000E+00 -0.32548734669E+04  0.32548734669E+04  0.00000000000E+00 0. -1.
          6    1    1    2  502    0  0.62218645268E+02  0.34964860280E+03 -0.17882384176E+04  0.18312580221E+04  0.17200000000E+03 0. -1.
         -6    1    1    2    0  501 -0.62218645268E+02 -0.34964860280E+03 -0.14181882557E+04  0.14720622384E+04  0.17200000000E+03 0.  1.
</event>
<event>
 4    1  0.3196149E-002  0.2250632E+03  0.7818608E-02  0.1130164E+00
         -2   -1    0    0    0  501 -0.00000000000E+00  0.00000000000E+00  0.26858488873E+02  0.26858488873E+02  0.00000000000E+00 0.  1.
          2   -1    0    0  502    0  0.00000000000E+00 -0.00000000000E+00 -0.21772493297E+04  0.21772493297E+04  0.00000000000E+00 0. -1.
          6    1    1    2  502    0  0.84416666780E+02  0.11808164088E+03 -0.67208189684E+03  0.70876478722E+03  0.17200000000E+03 0.  1.
         -6    1    1    2    0  501 -0.84416666780E+02 -0.11808164088E+03 -0.14783089440E+04  0.14953430313E+04  0.17200000000E+03 0. -1.
</event>
<event>
 4    1  0.3196149E-002  0.2364082E+03  0.7818608E-02  0.1122209E+00
          1   -1    0    0  502    0  0.00000000000E+00  0.00000000000E+00  0.16824512321E+03  0.16824512321E+03  0.00000000000E+00 0. -1.
         -1   -1    0    0    0  501 -0.00000000000E+00 -0.00000000000E+00 -0.33805967709E+03  0.33805967709E+03  0.00000000000E+00 0.  1.
          6    1    1    2  502    0 -0.15400439763E+03  0.50867527024E+02 -0.51541620222E+02  0.24196156391E+03  0.17200000000E+03 0. -1.
         -6    1    1    2    0  501  0.15400439763E+03 -0.50867527024E+02 -0.11827293366E+03  0.26434323640E+03  0.17200000000E+03 0.  1.
</event>
<event>
 4    1  0.3196149E-002  0.2779830E+03  0.7818608E-02  0.1096796E+00
         -2   -1    0    0    0  501 -0.00000000000E+00  0.00000000000E+00  0.13980420445E+03  0.13980420445E+03  0.00000000000E+00 0.  1.
          2   -1    0    0  502    0  0.00000000000E+00 -0.00000000000E+00 -0.56330841446E+03  0.56330841446E+03  0.00000000000E+00 0. -1.
          6    1    1    2  502    0  0.19397745824E+03 -0.10031589313E+03 -0.16358499482E+03  0.32254392453E+03  0.17200000000E+03 0.  1.
         -6    1    1    2    0  501 -0.19397745824E+03  0.10031589313E+03 -0.25991921519E+03  0.38056869438E+03  0.17200000000E+03 0.  1.
</event>
<event>
 4    1  0.3196149E-002  0.3390418E+03  0.7818608E-02  0.1067205E+00
         -2   -1    0    0    0  501 -0.00000000000E+00  0.00000000000E+00  0.98630281902E+02  0.98630281902E+02  0.00000000000E+00 0.  1.
          2   -1    0    0  502    0  0.00000000000E+00 -0.00000000000E+00 -0.11665599597E+04  0.11665599597E+04  0.00000000000E+00 0. -1.
          6    1    1    2  502    0  0.27936555915E+03  0.85558186266E+02 -0.51451038012E+03  0.61617387978E+03  0.17200000000E+03 0. -1.
         -6    1    1    2    0  501 -0.27936555915E+03 -0.85558186266E+02 -0.55341929771E+03  0.64901636185E+03  0.17200000000E+03 0.  1.
</event>
<event>
 4    1  0.3196149E-002  0.2210198E+03  0.7818608E-02  0.1133125E+00
          2   -1    0    0  502    0  0.00000000000E+00  0.00000000000E+00  0.84877961278E+03  0.84877961278E+03  0.00000000000E+00 0. -1.
         -2   -1    0    0    0  501 -0.00000000000E+00 -0.00000000000E+00 -0.96560179239E+02  0.96560179239E+02  0.00000000000E+00 0.  1.
          6    1    1    2  502    0  0.13705045720E+03 -0.21975661894E+02  0.67653158932E+03  0.71171957180E+03  0.17200000000E+03 0. -1.
         -6    1    1    2    0  501 -0.13705045720E+03  0.21975661894E+02  0.75687844223E+02  0.23362022022E+03  0.17200000000E+03 0.  1.
</event>
<event>
 4    1  0.3196149E-002  0.1747914E+03  0.7818608E-02  0.1172941E+00
         -2   -1    0    0    0  501 -0.00000000000E+00  0.00000000000E+00  0.18049298356E+02  0.18049298356E+02  0.00000000000E+00 0.  1.
          2   -1    0    0  502    0  0.00000000000E+00 -0.00000000000E+00 -0.20286966402E+04  0.20286966402E+04  0.00000000000E+00 0. -1.
          6    1    1    2  502    0 -0.30721756798E+02 -0.49203339836E+01 -0.14218028154E+04  0.14325066429E+04  0.17200000000E+03 0. -1.
         -6    1    1    2    0  501  0.30721756798E+02  0.49203339836E+01 -0.58884452650E+03  0.61423929573E+03  0.17200000000E+03 0.  1.
</event>
<event>
 4    1  0.3196149E-002  0.6080899E+03  0.7818608E-02  0.9888763E-01
          2   -1    0    0  502    0  0.00000000000E+00  0.00000000000E+00  0.20995366774E+04  0.20995366774E+04  0.00000000000E+00 0. -1.
         -2   -1    0    0    0  501 -0.00000000000E+00 -0.00000000000E+00 -0.19768360456E+03  0.19768360456E+03  0.00000000000E+00 0.  1.
          6    1    1    2  502    0 -0.52948864725E+03 -0.24460385875E+03  0.13302713992E+04  0.14626671771E+04  0.17200000000E+03 0. -1.
         -6    1    1    2    0  501  0.52948864725E+03  0.24460385875E+03  0.57158167360E+03  0.83455310489E+03  0.17200000000E+03 0.  1.
</event>
<event>
 4    1  0.3196149E-002  0.6672244E+03  0.7818608E-02  0.9774985E-01
          2   -1    0    0  502    0  0.00000000000E+00  0.00000000000E+00  0.12590046579E+04  0.12590046579E+04  0.00000000000E+00 0. -1.
         -2   -1    0    0    0  501 -0.00000000000E+00 -0.00000000000E+00 -0.35736707780E+03  0.35736707780E+03  0.00000000000E+00 0.  1.
          6    1    1    2  502    0  0.69338055935E+02  0.64093419543E+03  0.36788023241E+03  0.76192143576E+03  0.17200000000E+03 0. -1.
         -6    1    1    2    0  501 -0.69338055935E+02 -0.64093419543E+03  0.53375734771E+03  0.85445029996E+03  0.17200000000E+03 0.  1.
</event>
<event>
 4    1  0.3196149E-002  0.2237291E+03  0.7818608E-02  0.1131133E+00
         -2   -1    0    0    0  501 -0.00000000000E+00  0.00000000000E+00  0.63924168414E+02  0.63924168414E+02  0.00000000000E+00 0.  1.
          2   -1    0    0  502    0  0.00000000000E+00 -0.00000000000E+00 -0.78398465832E+03  0.78398465832E+03  0.00000000000E+00 0. -1.
          6    1    1    2  502    0  0.14236052603E+03 -0.14289865580E+02 -0.34525771328E+03  0.41140929524E+03  0.17200000000E+03 0.  1.
         -6    1    1    2    0  501 -0.14236052603E+03  0.14289865580E+02 -0.37480277662E+03  0.43649953149E+03  0.17200000000E+03 0.  1.
</event>
<event>
 4    1  0.3196149E-002  0.2344759E+03  0.7818608E-02  0.1123529E+00
          2   -1    0    0  502    0  0.00000000000E+00  0.00000000000E+00  0.30552526034E+03  0.30552526034E+03  0.00000000000E+00 0. -1.
         -2   -1    0    0    0  501 -0.00000000000E+00 -0.00000000000E+00 -0.47185880188E+03  0.47185880188E+03  0.00000000000E+00 0.  1.
          6    1    1    2  502    0 -0.45240268085E+02  0.15280137951E+03 -0.38888687456E+03  0.45410565361E+03  0.17200000000E+03 0.  1.
         -6    1    1    2    0  501  0.45240268085E+02 -0.15280137951E+03  0.22255333302E+03  0.32327840861E+03  0.17200000000E+03 0. -1.
</event>
<event>
 4    1  0.3196149E-002  0.1923999E+03  0.7818608E-02  0.1156314E+00
         -2   -1    0    0    0  501 -0.00000000000E+00  0.00000000000E+00  0.47663956088E+02  0.47663956088E+02  0.00000000000E+00 0.  1.
          2   -1    0    0  502    0  0.00000000000E+00 -0.00000000000E+00 -0.81812352957E+03  0.81812352957E+03  0.00000000000E+00 0. -1.
          6    1    1    2  502    0 -0.77398723846E+02 -0.37988847429E+02 -0.28775059944E+03  0.34614754435E+03  0.17200000000E+03 0. -1.
         -6    1    1    2    0  501  0.77398723846E+02  0.37988847429E+02 -0.48270897404E+03  0.51963994131E+03  0.17200000000E+03 0.  1.
</event>
<event>
 4    1  0.3196149E-002  0.2304475E+03  0.7818608E-02  0.1126325E+00
          2   -1    0    0  502    0  0.00000000000E+00  0.00000000000E+00  0.91452558703E+03  0.91452558703E+03  0.00000000000E+00 0. -1.
         -2   -1    0    0    0  501 -0.00000000000E+00 -0.00000000000E+00 -0.66626656618E+02  0.66626656618E+02  0.00000000000E+00 0.  1.
          6    1    1    2  502    0 -0.93144926238E+01  0.15308590551E+03  0.59976078732E+03  0.64250996587E+03  0.17200000000E+03 0. -1.
         -6    1    1    2    0  501  0.93144926238E+01 -0.15308590551E+03  0.24813814309E+03  0.33864227778E+03  0.17200000000E+03 0.  1.
</event>
<event>
 4    1  0.3196149E-002  0.1834948E+03  0.7818608E-02  0.1164463E+00
          1   -1    0    0  502    0  0.00000000000E+00  0.00000000000E+00  0.30628011587E+03  0.30628011587E+03  0.00000000000E+00 0. -1.
         -1   -1    0    0    0  501 -0.00000000000E+00 -0.00000000000E+00 -0.16957279775E+03  0.16957279775E+03  0.00000000000E+00 0.  1.
          6    1    1    2  502    0  0.11191708399E+02 -0.62937084406E+02  0.20945536430E+03  0.27846342769E+03  0.17200000000E+03 0. -1.
         -6    1    1    2    0  501 -0.11191708399E+02  0.62937084406E+02 -0.72748046179E+02  0.19738948592E+03  0.17200000000E+03 0.  1.
</event>
<event>
 4    1  0.3196149E-002  0.1918162E+03  0.7818608E-02  0.1156833E+00
          2   -1    0    0  502    0  0.00000000000E+00  0.00000000000E+00  0.32216789043E+03  0.32216789043E+03  0.00000000000E+00 0. -1.
         -2   -1    0    0    0  501 -0.00000000000E+00 -0.00000000000E+00 -0.24139889876E+03  0.24139889876E+03  0.00000000000E+00 0.  1.
          6    1    1    2  502    0  0.34309179036E+02 -0.77668073703E+02 -0.16415608610E+03  0.25246914671E+03  0.17200000000E+03 0.  1.
         -6    1    1    2    0  501 -0.34309179036E+02  0.77668073703E+02  0.24492507776E+03  0.31109764248E+03  0.17200000000E+03 0. -1.
</event>
<event>
 4    1  0.3196149E-002  0.3121427E+03  0.7818608E-02  0.1079323E+00
          2   -1    0    0  502    0  0.00000000000E+00  0.00000000000E+00  0.51218842521E+03  0.51218842521E+03  0.00000000000E+00 0. -1.
         -2   -1    0    0    0  501 -0.00000000000E+00 -0.00000000000E+00 -0.35412130941E+03  0.35412130941E+03  0.00000000000E+00 0.  1.
          6    1    1    2  502    0 -0.96814272668E+02 -0.24181824181E+03  0.37371075082E+03  0.48692175012E+03  0.17200000000E+03 0. -1.
         -6    1    1    2    0  501  0.96814272668E+02  0.24181824181E+03 -0.21564363501E+03  0.37938798450E+03  0.17200000000E+03 0.  1.
</event>
<event>
 4    1  0.3196149E-002  0.1884542E+03  0.7818608E-02  0.1159863E+00
         -2   -1    0    0    0  501 -0.00000000000E+00  0.00000000000E+00  0.11023753267E+03  0.11023753267E+03  0.00000000000E+00 0.  1.
          2   -1    0    0  502    0  0.00000000000E+00 -0.00000000000E+00 -0.38283181023E+03  0.38283181023E+03  0.00000000000E+00 0. -1.
          6    1    1    2  502    0 -0.54148975158E+02  0.54761986785E+02 -0.23443564574E+03  0.30079072243E+03  0.17200000000E+03 0.  1.
         -6    1    1    2    0  501  0.54148975158E+02 -0.54761986785E+02 -0.38158631821E+02  0.19227862047E+03  0.17200000000E+03 0.  1.
</event>
<event>
 4    1  0.3196149E-002  0.6976489E+03  0.7818608E-02  0.9721261E-01
         -2   -1    0    0    0  501 -0.00000000000E+00  0.00000000000E+00  0.12057721187E+04  0.12057721187E+04  0.00000000000E+00 0.  1.
          2   -1    0    0  502    0  0.00000000000E+00 -0.00000000000E+00 -0.40410694005E+03  0.40410694005E+03  0.00000000000E+00 0. -1.
          6    1    1    2  502    0  0.10701772174E+02 -0.67602919433E+03  0.37386580210E+03  0.79151098381E+03  0.17200000000E+03 0. -1.
         -6    1    1    2    0  501 -0.10701772174E+02  0.67602919433E+03  0.42779937656E+03  0.81836807495E+03  0.17200000000E+03 0.  1.
</event>
<event>
 4    1  0.3196149E-002  0.2242261E+03  0.7818608E-02  0.1130771E+00
          2   -1    0    0  502    0  0.00000000000E+00  0.00000000000E+00  0.60281026942E+03  0.60281026942E+03  0.00000000000E+00 0. -1.
         -2   -1    0    0    0  501 -0.00000000000E+00 -0.00000000000E+00 -0.19223954794E+03  0.19223954794E+03  0.00000000000E+00 0.  1.
          6    1    1    2  502    0  0.14385180671E+03 -0.42404334145E-01  0.50439232203E+03  0.55198637539E+03  0.17200000000E+03 0. -1.
         -6    1    1    2    0  501 -0.14385180671E+03  0.42404334145E-01 -0.93821600559E+02  0.24306344197E+03  0.17200000000E+03 0.  1.
</event>
<event>
 4    1  0.3196149E-002  0.2190527E+03  0.7818608E-02  0.1134591E+00
         -2   -1    0    0    0  501 -0.00000000000E+00  0.00000000000E+00  0.86973945694E+02  0.86973945694E+02  0.00000000000E+00 0.  1.
          2   -1    0    0  502    0  0.00000000000E+00 -0.00000000000E+00 -0.57015233497E+03  0.57015233497E+03  0.00000000000E+00 0. -1.
          6    1    1    2  502    0  0.12434501213E+03 -0.54206865609E+02 -0.30068762004E+03  0.37201762212E+03  0.17200000000E+03 0. -1.
         -6    1    1    2    0  501 -0.12434501213E+03  0.54206865609E+02 -0.18249076924E+03  0.28510865855E+03  0.17200000000E+03 0.  1.
</event>
<event>
 4    1  0.3196149E-002  0.8325534E+03  0.7818608E-02  0.9514057E-01
          1   -1    0    0  502    0  0.00000000000E+00  0.00000000000E+00  0.71815068366E+03  0.71815068366E+03  0.00000000000E+00 0. -1.
         -1   -1    0    0    0  501 -0.00000000000E+00 -0.00000000000E+00 -0.96773631214E+03  0.96773631214E+03  0.00000000000E+00 0.  1.
          6    1    1    2  502    0 -0.48029410146E+03  0.65793521043E+03 -0.81474740139E+02  0.83653051247E+03  0.17200000000E+03 0. -1.
         -6    1    1    2    0  501  0.48029410146E+03 -0.65793521043E+03 -0.16811088834E+03  0.84935648334E+03  0.17200000000E+03 0.  1.
</event>
<event>
 4    1  0.3196149E-002  0.2347353E+03  0.7818608E-02  0.1123351E+00
          2   -1    0    0  502    0  0.00000000000E+00  0.00000000000E+00  0.12217108629E+04  0.12217108629E+04  0.00000000000E+00 0. -1.
         -2   -1    0    0    0  501 -0.00000000000E+00 -0.00000000000E+00 -0.10271517395E+03  0.10271517395E+03  0.00000000000E+00 0.  1.
          6    1    1    2  502    0  0.15839975664E+03  0.20643524234E+02  0.10554551480E+04  0.10812428994E+04  0.17200000000E+03 0. -1.
         -6    1    1    2    0  501 -0.15839975664E+03 -0.20643524234E+02  0.63540540919E+02  0.24318313744E+03  0.17200000000E+03 0.  1.
</event>
<event>
 4    1  0.3196149E-002  0.1826819E+03  0.7818608E-02  0.1165232E+00
          1   -1    0    0  502    0  0.00000000000E+00  0.00000000000E+00  0.23887433953E+04  0.23887433953E+04  0.00000000000E+00 0. -1.
         -1   -1    0    0    0  501 -0.00000000000E+00 -0.00000000000E+00 -0.22012916414E+02  0.22012916414E+02  0.00000000000E+00 0.  1.
          6    1    1    2  502    0 -0.59974644072E+02  0.13846449742E+02  0.19119320944E+04  0.19206397412E+04  0.17200000000E+03 0. -1.
         -6    1    1    2    0  501  0.59974644072E+02 -0.13846449742E+02  0.45479838445E+03  0.49011657042E+03  0.17200000000E+03 0.  1.
</event>
<event>
 4    1  0.3196149E-002  0.3270971E+03  0.7818608E-02  0.1072429E+00
          4   -1    0    0  502    0  0.00000000000E+00  0.00000000000E+00  0.14434550620E+03  0.14434550620E+03  0.00000000000E+00 0. -1.
         -4   -1    0    0    0  501 -0.00000000000E+00 -0.00000000000E+00 -0.84036560176E+03  0.84036560176E+03  0.00000000000E+00 0.  1.
          6    1    1    2  502    0 -0.83915110904E+02 -0.26526734079E+03 -0.51712045282E+03  0.61188730225E+03  0.17200000000E+03 0. -1.
         -6    1    1    2    0  501  0.83915110904E+02  0.26526734079E+03 -0.17889964275E+03  0.37282380571E+03  0.17200000000E+03 0. -1.
</event>
<event>
 4    1  0.3196149E-002  0.1968381E+03  0.7818608E-02  0.1152434E+00
          1   -1    0    0  502    0  0.00000000000E+00  0.00000000000E+00  0.27547243656E+04  0.27547243656E+04  0.00000000000E+00 0. -1.
         -1   -1    0    0    0  501 -0.00000000000E+00 -0.00000000000E+00 -0.16402157984E+02  0.16402157984E+02  0.00000000000E+00 0.  1.
          6    1    1    2  502    0 -0.72171445228E+00  0.95711575200E+02  0.84614032276E+03  0.86873394794E+03  0.17200000000E+03 0.  1.
         -6    1    1    2    0  501  0.72171445228E+00 -0.95711575200E+02  0.18921818849E+04  0.19023925757E+04  0.17200000000E+03 0.  1.
</event>
<event>
 4    1  0.3196149E-002  0.2383056E+03  0.7818608E-02  0.1120927E+00
         -2   -1    0    0    0  501 -0.00000000000E+00  0.00000000000E+00  0.25926942413E+02  0.25926942413E+02  0.00000000000E+00 0.  1.
          2   -1    0    0  502    0  0.00000000000E+00 -0.00000000000E+00 -0.28629268304E+04  0.28629268304E+04  0.00000000000E+00 0. -1.
          6    1    1    2  502    0  0.16373425143E+03  0.19915580172E+02 -0.21185928842E+04  0.21319534105E+04  0.17200000000E+03 0. -1.
         -6    1    1    2    0  501 -0.16373425143E+03 -0.19915580172E+02 -0.71840700376E+03  0.75690036232E+03  0.17200000000E+03 0.  1.
</event>
<event>
 4    1  0.3196149E-002  0.1831883E+03  0.7818608E-02  0.1164753E+00
         -2   -1    0    0    0  501 -0.00000000000E+00  0.00000000000E+00  0.21039675199E+02  0.21039675199E+02  0.00000000000E+00 0.  1.
          2   -1    0    0  502    0  0.00000000000E+00 -0.00000000000E+00 -0.29145247467E+04  0.29145247467E+04  0.00000000000E+00 0. -1.
          6    1    1    2  502    0 -0.58096672168E+02  0.24469331903E+02 -0.45912465537E+03  0.49432117159E+03  0.17200000000E+03 0.  1.
         -6    1    1    2    0  501  0.58096672168E+02 -0.24469331903E+02 -0.24343604161E+04  0.24412432503E+04  0.17200000000E+03 0. -1.
</event>
<event>
 4    1  0.3196149E-002  0.2222601E+03  0.7818608E-02  0.1132209E+00
          1   -1    0    0  502    0  0.00000000000E+00  0.00000000000E+00  0.76606501314E+03  0.76606501314E+03  0.00000000000E+00 0. -1.
         -1   -1    0    0    0  501 -0.00000000000E+00 -0.00000000000E+00 -0.85748459470E+02  0.85748459470E+02  0.00000000000E+00 0.  1.
          6    1    1    2  502    0  0.63230311633E+02  0.12576754763E+03  0.55224835935E+03  0.59529639571E+03  0.17200000000E+03 0.  1.
         -6    1    1    2    0  501 -0.63230311633E+02 -0.12576754763E+03  0.12806819433E+03  0.25651707690E+03  0.17200000000E+03 0.  1.
</event>
<event>
 4    1  0.3196149E-002  0.3712147E+03  0.7818608E-02  0.1054229E+00
          2   -1    0    0  502    0  0.00000000000E+00  0.00000000000E+00  0.10611343097E+04  0.10611343097E+04  0.00000000000E+00 0. -1.
         -2   -1    0    0    0  501 -0.00000000000E+00 -0.00000000000E+00 -0.16856712213E+03  0.16856712213E+03  0.00000000000E+00 0.  1.
          6    1    1    2  502    0 -0.50677047526E+02  0.32503571553E+03  0.74090946110E+03  0.82870212324E+03  0.17200000000E+03 0. -1.
         -6    1    1    2    0  501  0.50677047526E+02 -0.32503571553E+03  0.15165772651E+03  0.40099930863E+03  0.17200000000E+03 0.  1.
</event>
<event>
 4    1  0.3196149E-002  0.2017861E+03  0.7818608E-02  0.1148241E+00
          1   -1    0    0  502    0  0.00000000000E+00  0.00000000000E+00  0.24673642522E+04  0.24673642522E+04  0.00000000000E+00 0. -1.
         -1   -1    0    0    0  501 -0.00000000000E+00 -0.00000000000E+00 -0.18205993570E+02  0.18205993570E+02  0.00000000000E+00 0.  1.
          6    1    1    2  502    0 -0.68275962544E+02 -0.80448765453E+02  0.16047357841E+04  0.16173727300E+04  0.17200000000E+03 0. -1.
         -6    1    1    2    0  501  0.68275962544E+02  0.80448765453E+02  0.84442247451E+03  0.86819751577E+03  0.17200000000E+03 0.  1.
</event>
<event>
 4    1  0.3196149E-002  0.3383521E+03  0.7818608E-02  0.1067500E+00
         -1   -1    0    0    0  501 -0.00000000000E+00  0.00000000000E+00  0.28083226199E+03  0.28083226199E+03  0.00000000000E+00 0.  1.
          1   -1    0    0  502    0  0.00000000000E+00 -0.00000000000E+00 -0.44253445610E+03  0.44253445610E+03  0.00000000000E+00 0. -1.
          6    1    1    2  502    0 -0.30964805309E+02  0.28972288003E+03  0.20692168531E+02  0.33898426544E+03  0.17200000000E+03 0. -1.
         -6    1    1    2    0  501  0.30964805309E+02 -0.28972288003E+03 -0.18239436264E+03  0.38438245265E+03  0.17200000000E+03 0.  1.
</event>
<event>
 4    1  0.3196149E-002  0.4370857E+03  0.7818608E-02  0.1031645E+00
          2   -1    0    0  502    0  0.00000000000E+00  0.00000000000E+00  0.21575351642E+04  0.21575351642E+04  0.00000000000E+00 0. -1.
         -2   -1    0    0    0  501 -0.00000000000E+00 -0.00000000000E+00 -0.10283612915E+03  0.10283612915E+03  0.00000000000E+00 0.  1.
          6    1    1    2  502    0  0.30239421679E+03  0.26460844352E+03  0.14486339477E+04  0.15131372063E+04  0.17200000000E+03 0. -1.
         -6    1    1    2    0  501 -0.30239421679E+03 -0.26460844352E+03  0.60606508740E+03  0.74723408708E+03  0.17200000000E+03 0.  1.
</event>
<event>
 4    1  0.3196149E-002  0.2755947E+03  0.7818608E-02  0.1098120E+00
          2   -1    0    0  502    0  0.00000000000E+00  0.00000000000E+00  0.82161724069E+03  0.82161724069E+03  0.00000000000E+00 0. -1.
         -2   -1    0    0    0  501 -0.00000000000E+00 -0.00000000000E+00 -0.10912949254E+03  0.10912949254E+03  0.00000000000E+00 0.  1.
          6    1    1    2  502    0  0.21327083171E+03 -0.29732149944E+02  0.53822148644E+03  0.60467744862E+03  0.17200000000E+03 0. -1.
         -6    1    1    2    0  501 -0.21327083171E+03  0.29732149944E+02  0.17426626171E+03  0.32606928461E+03  0.17200000000E+03 0.  1.
</event>
<event>
 4    1  0.3196149E-002  0.4346809E+03  0.7818608E-02  0.1032391E+00
          2   -1    0    0  502    0  0.00000000000E+00  0.00000000000E+00  0.21349870247E+04  0.21349870247E+04  0.00000000000E+00 0. -1.
         -2   -1    0    0    0  501 -0.00000000000E+00 -0.00000000000E+00 -0.15601162166E+03  0.15601162166E+03  0.00000000000E+00 0.  1.
          6    1    1    2  502    0  0.39490102029E+03 -0.58452135847E+02  0.23595179844E+03  0.49459146697E+03  0.17200000000E+03 0.  1.
         -6    1    1    2    0  501 -0.39490102029E+03  0.58452135847E+02  0.17430236046E+04  0.17964071794E+04  0.17200000000E+03 0. -1.
</event>
<event>
 4    1  0.3196149E-002  0.3025555E+03  0.7818608E-02  0.1083970E+00
          2   -1    0    0  502    0  0.00000000000E+00  0.00000000000E+00  0.15145865677E+03  0.15145865677E+03  0.00000000000E+00 0. -1.
         -2   -1    0    0    0  501 -0.00000000000E+00 -0.00000000000E+00 -0.69427246145E+03  0.69427246145E+03  0.00000000000E+00 0.  1.
          6    1    1    2  502    0 -0.19295653235E+03  0.15723749423E+03 -0.11925453101E+03  0.32520992625E+03  0.17200000000E+03 0. -1.
         -6    1    1    2    0  501  0.19295653235E+03 -0.15723749423E+03 -0.42355927367E+03  0.52052119196E+03  0.17200000000E+03 0.  1.
</event>
<event>
 4    1  0.3196149E-002  0.1759662E+03  0.7818608E-02  0.1171765E+00
         -2   -1    0    0    0  501 -0.00000000000E+00  0.00000000000E+00  0.10664337223E+04  0.10664337223E+04  0.00000000000E+00 0.  1.
          2   -1    0    0  502    0  0.00000000000E+00 -0.00000000000E+00 -0.76600705626E+02  0.76600705626E+02  0.00000000000E+00 0. -1.
          6    1    1    2  502    0 -0.32909540394E+02  0.17235825496E+02  0.44557337990E+02  0.18151988293E+03  0.17200000000E+03 0. -1.
         -6    1    1    2    0  501  0.32909540394E+02 -0.17235825496E+02  0.94527567866E+03  0.96151454498E+03  0.17200000000E+03 0.  1.
</event>
<event>
 4    1  0.3196149E-002  0.1825320E+03  0.7818608E-02  0.1165375E+00
          2   -1    0    0  502    0  0.00000000000E+00  0.00000000000E+00  0.44630732141E+03  0.44630732141E+03  0.00000000000E+00 0. -1.
         -2   -1    0    0    0  501 -0.00000000000E+00 -0.00000000000E+00 -0.92518924289E+02  0.92518924289E+02  0.00000000000E+00 0.  1.
          6    1    1    2  502    0 -0.52800835113E+02 -0.30757344114E+02  0.29528628827E+03  0.34714828884E+03  0.17200000000E+03 0. -1.
         -6    1    1    2    0  501  0.52800835113E+02  0.30757344114E+02  0.58502108853E+02  0.19167795686E+03  0.17200000000E+03 0.  1.
</event>
<event>
 4    1  0.3196149E-002  0.2311370E+03  0.7818608E-02  0.1125842E+00
         -3   -1    0    0    0  501 -0.00000000000E+00  0.00000000000E+00  0.12569494281E+03  0.12569494281E+03  0.00000000000E+00 0.  1.
          3   -1    0    0  502    0  0.00000000000E+00 -0.00000000000E+00 -0.55725638274E+03  0.55725638274E+03  0.00000000000E+00 0. -1.
          6    1    1    2  502    0 -0.16492819561E+02 -0.15351964287E+03 -0.38211778658E+03  0.44658515052E+03  0.17200000000E+03 0. -1.
         -6    1    1    2    0  501  0.16492819561E+02  0.15351964287E+03 -0.49443653350E+02  0.23636617504E+03  0.17200000000E+03 0.  1.
</event>
<event>
 4    1  0.3196149E-002  0.2318025E+03  0.7818608E-02  0.1125377E+00
          2   -1    0    0  502    0  0.00000000000E+00  0.00000000000E+00  0.72873916357E+03  0.72873916357E+03  0.00000000000E+00 0. -1.
         -2   -1    0    0    0  501 -0.00000000000E+00 -0.00000000000E+00 -0.83918933261E+02  0.83918933261E+02  0.00000000000E+00 0.  1.
          6    1    1    2  502    0 -0.96133431155E+02  0.12209326173E+03  0.46397000665E+03  0.51865264698E+03  0.17200000000E+03 0.  1.
         -6    1    1    2    0  501  0.96133431155E+02 -0.12209326173E+03  0.18085022366E+03  0.29400544985E+03  0.17200000000E+03 0.  1.
</event>
<event>
 4    1  0.3196149E-002  0.2399731E+03  0.7818608E-02  0.1119811E+00
         -2   -1    0    0    0  501 -0.00000000000E+00  0.00000000000E+00  0.99086697069E+02  0.99086697069E+02  0.00000000000E+00 0.  1.
          2   -1    0    0  502    0  0.00000000000E+00 -0.00000000000E+00 -0.87176992143E+03  0.87176992143E+03  0.00000000000E+00 0. -1.
          6    1    1    2  502    0  0.16124288015E+03 -0.44763900545E+02 -0.66660440121E+03  0.70848323968E+03  0.17200000000E+03 0. -1.
         -6    1    1    2    0  501 -0.16124288015E+03  0.44763900545E+02 -0.10607882315E+03  0.26237337882E+03  0.17200000000E+03 0.  1.
</event>
<event>
 4    1  0.3196149E-002  0.2499217E+03  0.7818608E-02  0.1113354E+00
          1   -1    0    0  502    0  0.00000000000E+00  0.00000000000E+00  0.12297248374E+04  0.12297248374E+04  0.00000000000E+00 0. -1.
         -1   -1    0    0    0  501 -0.00000000000E+00 -0.00000000000E+00 -0.76764998097E+02  0.76764998097E+02  0.00000000000E+00 0.  1.
          6    1    1    2  502    0 -0.17429437335E+03  0.49983083283E+02  0.19650842396E+03  0.31792514509E+03  0.17200000000E+03 0. -1.
         -6    1    1    2    0  501  0.17429437335E+03 -0.49983083283E+02  0.95645141532E+03  0.98856469038E+03  0.17200000000E+03 0. -1.
</event>
<event>
 4    1  0.3196149E-002  0.1791097E+03  0.7818608E-02  0.1168667E+00
         -4   -1    0    0    0  501 -0.00000000000E+00  0.00000000000E+00  0.17791217545E+03  0.17791217545E+03  0.00000000000E+00 0.  1.
          4   -1    0    0  502    0  0.00000000000E+00 -0.00000000000E+00 -0.68266475546E+03  0.68266475546E+03  0.00000000000E+00 0. -1.
          6    1    1    2  502    0  0.35207001197E+02 -0.35450649231E+02 -0.62148895377E+03  0.64678342675E+03  0.17200000000E+03 0. -1.
         -6    1    1    2    0  501 -0.35207001197E+02  0.35450649231E+02  0.11673637376E+03  0.21379350416E+03  0.17200000000E+03 0.  1.
</event>
<event>
 4    1  0.3196149E-002  0.6775303E+03  0.7818608E-02  0.9756449E-01
         -2   -1    0    0    0  501 -0.00000000000E+00  0.00000000000E+00  0.19860547918E+03  0.19860547918E+03  0.00000000000E+00 0.  1.
          2   -1    0    0  502    0  0.00000000000E+00 -0.00000000000E+00 -0.26274324465E+04  0.26274324465E+04  0.00000000000E+00 0. -1.
          6    1    1    2  502    0  0.40006312175E+03 -0.51904989022E+03 -0.17045088723E+04  0.18342294801E+04  0.17200000000E+03 0. -1.
         -6    1    1    2    0  501 -0.40006312175E+03  0.51904989022E+03 -0.72431809499E+03  0.99180844555E+03  0.17200000000E+03 0.  1.
</event>
<event>
 4    1  0.3196149E-002  0.2546809E+03  0.7818608E-02  0.1110382E+00
          3   -1    0    0  502    0  0.00000000000E+00  0.00000000000E+00  0.15004777437E+03  0.15004777437E+03  0.00000000000E+00 0. -1.
         -3   -1    0    0    0  501 -0.00000000000E+00 -0.00000000000E+00 -0.45291842572E+03  0.45291842572E+03  0.00000000000E+00 0.  1.
          6    1    1    2  502    0  0.11488237290E+03 -0.14859468170E+03 -0.21579490529E+03  0.33381099470E+03  0.17200000000E+03 0.  1.
         -6    1    1    2    0  501 -0.11488237290E+03  0.14859468170E+03 -0.87075746063E+02  0.26915520539E+03  0.17200000000E+03 0.  1.
</event>
<event>
 4    1  0.3196149E-002  0.1790573E+03  0.7818608E-02  0.1168719E+00
          1   -1    0    0  502    0  0.00000000000E+00  0.00000000000E+00  0.41863202218E+03  0.41863202218E+03  0.00000000000E+00 0. -1.
         -1   -1    0    0    0  501 -0.00000000000E+00 -0.00000000000E+00 -0.20746484864E+03  0.20746484864E+03  0.00000000000E+00 0.  1.
          6    1    1    2  502    0  0.46545045810E+02  0.17637504538E+02  0.35422492339E+03  0.39690908178E+03  0.17200000000E+03 0. -1.
         -6    1    1    2    0  501 -0.46545045810E+02 -0.17637504538E+02 -0.14305774985E+03  0.22918778904E+03  0.17200000000E+03 0.  1.
</event>
<event>
 4    1  0.3196149E-002  0.2048856E+03  0.7818608E-02  0.1145681E+00
         -2   -1    0    0    0  501 -0.00000000000E+00  0.00000000000E+00  0.38234235815E+02  0.38234235815E+02  0.00000000000E+00 0.  1.
          2   -1    0    0  502    0  0.00000000000E+00 -0.00000000000E+00 -0.12867290634E+04  0.12867290634E+04  0.00000000000E+00 0. -1.
          6    1    1    2  502    0  0.25793769469E+02  0.10829963482E+03 -0.87801830162E+03  0.90160649256E+03  0.17200000000E+03 0. -1.
         -6    1    1    2    0  501 -0.25793769469E+02 -0.10829963482E+03 -0.37047652592E+03  0.42335680661E+03  0.17200000000E+03 0.  1.
</event>
<event>
 4    1  0.3196149E-002  0.2520018E+03  0.7818608E-02  0.1112046E+00
          1   -1    0    0  502    0  0.00000000000E+00  0.00000000000E+00  0.87365882598E+03  0.87365882598E+03  0.00000000000E+00 0. -1.
         -1   -1    0    0    0  501 -0.00000000000E+00 -0.00000000000E+00 -0.10710707002E+03  0.10710707002E+03  0.00000000000E+00 0.  1.
          6    1    1    2  502    0 -0.18252558417E+03  0.24603022915E+02  0.66126197579E+03  0.70765266779E+03  0.17200000000E+03 0. -1.
         -6    1    1    2    0  501  0.18252558417E+03 -0.24603022915E+02  0.10528978018E+03  0.27311322821E+03  0.17200000000E+03 0.  1.
</event>
<event>
 4    1  0.3196149E-002  0.2342879E+03  0.7818608E-02  0.1123658E+00
          2   -1    0    0  502    0  0.00000000000E+00  0.00000000000E+00  0.10346275665E+04  0.10346275665E+04  0.00000000000E+00 0. -1.
         -2   -1    0    0    0  501 -0.00000000000E+00 -0.00000000000E+00 -0.53056830474E+02  0.53056830474E+02  0.00000000000E+00 0.  1.
          6    1    1    2  502    0 -0.42469524052E+02 -0.15330740747E+03  0.49496204962E+03  0.54761140622E+03  0.17200000000E+03 0. -1.
         -6    1    1    2    0  501  0.42469524052E+02  0.15330740747E+03  0.48660868641E+03  0.54007299076E+03  0.17200000000E+03 0.  1.
</event>
<event>
 4    1  0.3196149E-002  0.4287773E+03  0.7818608E-02  0.1034247E+00
          2   -1    0    0  502    0  0.00000000000E+00  0.00000000000E+00  0.48744421490E+03  0.48744421490E+03  0.00000000000E+00 0. -1.
         -2   -1    0    0    0  501 -0.00000000000E+00 -0.00000000000E+00 -0.44105199564E+03  0.44105199564E+03  0.00000000000E+00 0.  1.
          6    1    1    2  502    0  0.77513161164E+02  0.38504244873E+03  0.19987717038E+03  0.47307595660E+03  0.17200000000E+03 0.  1.
         -6    1    1    2    0  501 -0.77513161164E+02 -0.38504244873E+03 -0.15348495113E+03  0.45542025394E+03  0.17200000000E+03 0. -1.
</event>
<event>
 4    1  0.3196149E-002  0.2548095E+03  0.7818608E-02  0.1110303E+00
          1   -1    0    0  502    0  0.00000000000E+00  0.00000000000E+00  0.49950200185E+03  0.49950200185E+03  0.00000000000E+00 0. -1.
         -1   -1    0    0    0  501 -0.00000000000E+00 -0.00000000000E+00 -0.58736453482E+03  0.58736453482E+03  0.00000000000E+00 0.  1.
          6    1    1    2  502    0 -0.18780421235E+03  0.85704852563E+01  0.43561512094E+03  0.50466663154E+03  0.17200000000E+03 0. -1.
         -6    1    1    2    0  501  0.18780421235E+03 -0.85704852563E+01 -0.52347765391E+03  0.58219990513E+03  0.17200000000E+03 0.  1.
</event>
<event>
 4    1  0.3196149E-002  0.4877027E+03  0.7818608E-02  0.1017039E+00
          1   -1    0    0  502    0  0.00000000000E+00  0.00000000000E+00  0.22515205556E+04  0.22515205556E+04  0.00000000000E+00 0. -1.
         -1   -1    0    0    0  501 -0.00000000000E+00 -0.00000000000E+00 -0.11175136389E+03  0.11175136389E+03  0.00000000000E+00 0.  1.
          6    1    1    2  502    0  0.39238943090E+02 -0.45467597625E+03  0.13461803221E+04  0.14318014519E+04  0.17200000000E+03 0. -1.
         -6    1    1    2    0  501 -0.39238943090E+02  0.45467597625E+03  0.79358886965E+03  0.93147046763E+03  0.17200000000E+03 0.  1.
</event>
<event>
 4    1  0.3196149E-002  0.2987758E+03  0.7818608E-02  0.1085854E+00
          1   -1    0    0  502    0  0.00000000000E+00  0.00000000000E+00  0.17460357471E+04  0.17460357471E+04  0.00000000000E+00 0. -1.
         -1   -1    0    0    0  501 -0.00000000000E+00 -0.00000000000E+00 -0.52670322861E+02  0.52670322861E+02  0.00000000000E+00 0.  1.
          6    1    1    2  502    0  0.48489283770E+02 -0.23944054057E+03  0.69266029303E+03  0.75435088960E+03  0.17200000000E+03 0. -1.
         -6    1    1    2    0  501 -0.48489283770E+02  0.23944054057E+03  0.10007051313E+04  0.10443551804E+04  0.17200000000E+03 0.  1.
</event>
<event>
 4    1  0.3196149E-002  0.2665442E+03  0.7818608E-02  0.1103274E+00
         -1   -1    0    0    0  501 -0.00000000000E+00  0.00000000000E+00  0.26965079718E+03  0.26965079718E+03  0.00000000000E+00 0.  1.
          1   -1    0    0  502    0  0.00000000000E+00 -0.00000000000E+00 -0.64036855119E+03  0.64036855119E+03  0.00000000000E+00 0. -1.
          6    1    1    2  502    0 -0.10046923858E+03  0.17710940788E+03 -0.53443159887E+03  0.59721264566E+03  0.17200000000E+03 0. -1.
         -6    1    1    2    0  501  0.10046923858E+03 -0.17710940788E+03  0.16371384486E+03  0.31280670271E+03  0.17200000000E+03 0.  1.
</event>
<event>
 4    1  0.3196149E-002  0.1867467E+03  0.7818608E-02  0.1161429E+00
          3   -1    0    0  502    0  0.00000000000E+00  0.00000000000E+00  0.17821224478E+03  0.17821224478E+03  0.00000000000E+00 0. -1.
         -3   -1    0    0    0  501 -0.00000000000E+00 -0.00000000000E+00 -0.19580463536E+03  0.19580463536E+03  0.00000000000E+00 0.  1.
          6    1    1    2  502    0  0.48883517210E+02 -0.53858367467E+02 -0.13324657896E+02  0.18722144244E+03  0.17200000000E+03 0.  1.
         -6    1    1    2    0  501 -0.48883517210E+02  0.53858367467E+02 -0.42677326829E+01  0.18679543769E+03  0.17200000000E+03 0. -1.
</event>
<event>
 4    1  0.3196149E-002  0.3202296E+03  0.7818608E-02  0.1075544E+00
         -1   -1    0    0    0  501 -0.00000000000E+00  0.00000000000E+00  0.16260351104E+03  0.16260351104E+03  0.00000000000E+00 0.  1.
          1   -1    0    0  502    0  0.00000000000E+00 -0.00000000000E+00 -0.92531355823E+03  0.92531355823E+03  0.00000000000E+00 0. -1.
          6    1    1    2  502    0 -0.18859907354E+03 -0.19337367036E+03 -0.68831350655E+03  0.75915905463E+03  0.17200000000E+03 0. -1.
         -6    1    1    2    0  501  0.18859907354E+03  0.19337367036E+03 -0.74396540646E+02  0.32875801464E+03  0.17200000000E+03 0.  1.
</event>
<event>
 4    1  0.3196149E-002  0.1833160E+03  0.7818608E-02  0.1164632E+00
         -2   -1    0    0    0  501 -0.00000000000E+00  0.00000000000E+00  0.38130740617E+02  0.38130740617E+02  0.00000000000E+00 0.  1.
          2   -1    0    0  502    0  0.00000000000E+00 -0.00000000000E+00 -0.91567982012E+03  0.91567982012E+03  0.00000000000E+00 0. -1.
          6    1    1    2  502    0  0.59501413024E+01 -0.63129598229E+02 -0.34637053399E+03  0.39188939405E+03  0.17200000000E+03 0. -1.
         -6    1    1    2    0  501 -0.59501413024E+01  0.63129598229E+02 -0.53117854551E+03  0.56192116669E+03  0.17200000000E+03 0.  1.
</event>
<event>
 4    1  0.3196149E-002  0.6478650E+03  0.7818608E-02  0.9810794E-01
         -2   -1    0    0    0  501 -0.00000000000E+00  0.00000000000E+00  0.51717719400E+03  0.51717719400E+03  0.00000000000E+00 0.  1.
          2   -1    0    0  502    0  0.00000000000E+00 -0.00000000000E+00 -0.81883351724E+03  0.81883351724E+03  0.00000000000E+00 0. -1.
          6    1    1    2  502    0  0.53697457765E+03  0.31906633719E+03 -0.87942516552E+02  0.65380647809E+03  0.17200000000E+03 0. -1.
         -6    1    1    2    0  501 -0.53697457765E+03 -0.31906633719E+03 -0.21371380669E+03  0.68220423316E+03  0.17200000000E+03 0.  1.
</event>
<event>
 4    1  0.3196149E-002  0.3371656E+03  0.7818608E-02  0.1068010E+00
          1   -1    0    0  502    0  0.00000000000E+00  0.00000000000E+00  0.10564397012E+03  0.10564397012E+03  0.00000000000E+00 0. -1.
         -1   -1    0    0    0  501 -0.00000000000E+00 -0.00000000000E+00 -0.10844203134E+04  0.10844203134E+04  0.00000000000E+00 0.  1.
          6    1    1    2  502    0  0.28005840287E+03  0.75259170530E+02 -0.43718365352E+03  0.55209618606E+03  0.17200000000E+03 0. -1.
         -6    1    1    2    0  501 -0.28005840287E+03 -0.75259170530E+02 -0.54159268972E+03  0.63796809742E+03  0.17200000000E+03 0.  1.
</event>
<event>
 4    1  0.3196149E-002  0.2500680E+03  0.7818608E-02  0.1113262E+00
          1   -1    0    0  502    0  0.00000000000E+00  0.00000000000E+00  0.13466859361E+03  0.13466859361E+03  0.00000000000E+00 0. -1.
         -1   -1    0    0    0  501 -0.00000000000E+00 -0.00000000000E+00 -0.86702347245E+03  0.86702347245E+03  0.00000000000E+00 0.  1.
          6    1    1    2  502    0  0.10767585935E+03 -0.14613666045E+03 -0.24856677258E+02  0.25130035539E+03  0.17200000000E+03 0. -1.
         -6    1    1    2    0  501 -0.10767585935E+03  0.14613666045E+03 -0.70749820157E+03  0.75039171067E+03  0.17200000000E+03 0.  1.
</event>
<event>
 4    1  0.3196149E-002  0.3965350E+03  0.7818608E-02  0.1044986E+00
         -2   -1    0    0    0  501 -0.00000000000E+00  0.00000000000E+00  0.19259084720E+03  0.19259084720E+03  0.00000000000E+00 0.  1.
          2   -1    0    0  502    0  0.00000000000E+00 -0.00000000000E+00 -0.17784830846E+04  0.17784830846E+04  0.00000000000E+00 0. -1.
          6    1    1    2  502    0  0.11942013919E+03 -0.33674154321E+03 -0.68103126470E+02  0.40234074166E+03  0.17200000000E+03 0. -1.
         -6    1    1    2    0  501 -0.11942013919E+03  0.33674154321E+03 -0.15177891110E+04  0.15687331902E+04  0.17200000000E+03 0.  1.
</event>
<event>
 4    1  0.3196149E-002  0.2317946E+03  0.7818608E-02  0.1125383E+00
         -2   -1    0    0    0  501 -0.00000000000E+00  0.00000000000E+00  0.47758032678E+02  0.47758032678E+02  0.00000000000E+00 0.  1.
          2   -1    0    0  502    0  0.00000000000E+00 -0.00000000000E+00 -0.12261959932E+04  0.12261959932E+04  0.00000000000E+00 0. -1.
          6    1    1    2  502    0 -0.45212874570E+01  0.15531995211E+03 -0.40624762404E+03  0.46772412980E+03  0.17200000000E+03 0. -1.
         -6    1    1    2    0  501  0.45212874570E+01 -0.15531995211E+03 -0.77219033653E+03  0.80622989612E+03  0.17200000000E+03 0. -1.
</event>
<event>
 4    1  0.3196149E-002  0.2112555E+03  0.7818608E-02  0.1140576E+00
          2   -1    0    0  502    0  0.00000000000E+00  0.00000000000E+00  0.24107609429E+04  0.24107609429E+04  0.00000000000E+00 0. -1.
         -2   -1    0    0    0  501 -0.00000000000E+00 -0.00000000000E+00 -0.37201879862E+02  0.37201879862E+02  0.00000000000E+00 0.  1.
          6    1    1    2  502    0  0.12233780219E+03  0.88502890819E+01  0.20543235000E+04  0.20651571147E+04  0.17200000000E+03 0. -1.
         -6    1    1    2    0  501 -0.12233780219E+03 -0.88502890819E+01  0.31923556298E+03  0.38280570807E+03  0.17200000000E+03 0.  1.
</event>
<event>
 4    1  0.3196149E-002  0.3626985E+03  0.7818608E-02  0.1057520E+00
         -2   -1    0    0    0  501 -0.00000000000E+00  0.00000000000E+00  0.22956990990E+03  0.22956990990E+03  0.00000000000E+00 0.  1.
          2   -1    0    0  502    0  0.00000000000E+00 -0.00000000000E+00 -0.75355964957E+03  0.75355964957E+03  0.00000000000E+00 0. -1.
          6    1    1    2  502    0 -0.34007441295E+02 -0.31750538994E+03 -0.50259596952E+03  0.61980068351E+03  0.17200000000E+03 0. -1.
         -6    1    1    2    0  501  0.34007441295E+02  0.31750538994E+03 -0.21393770151E+02  0.36332887596E+03  0.17200000000E+03 0.  1.
</event>
<event>
 4    1  0.3196149E-002  0.1741171E+03  0.7818608E-02  0.1173621E+00
          2   -1    0    0  502    0  0.00000000000E+00  0.00000000000E+00  0.18831963792E+03  0.18831963792E+03  0.00000000000E+00 0. -1.
         -2   -1    0    0    0  501 -0.00000000000E+00 -0.00000000000E+00 -0.18417317944E+03  0.18417317944E+03  0.00000000000E+00 0.  1.
          6    1    1    2  502    0 -0.26483406770E+02  0.56023343954E+01  0.68158103746E+02  0.18698204216E+03  0.17200000000E+03 0. -1.
         -6    1    1    2    0  501  0.26483406770E+02 -0.56023343954E+01 -0.64011645271E+02  0.18551077520E+03  0.17200000000E+03 0.  1.
</event>
<event>
 4    1  0.3196149E-002  0.2777268E+03  0.7818608E-02  0.1096937E+00
          2   -1    0    0  502    0  0.00000000000E+00  0.00000000000E+00  0.10459902836E+04  0.10459902836E+04  0.00000000000E+00 0. -1.
         -2   -1    0    0    0  501 -0.00000000000E+00 -0.00000000000E+00 -0.78008226519E+02  0.78008226519E+02  0.00000000000E+00 0.  1.
          6    1    1    2  502    0 -0.20009340853E+03  0.86665033850E+02  0.61543680049E+03  0.67519971536E+03  0.17200000000E+03 0. -1.
         -6    1    1    2    0  501  0.20009340853E+03 -0.86665033850E+02  0.35254525658E+03  0.44879879475E+03  0.17200000000E+03 0.  1.
</event>
<event>
 4    1  0.3196149E-002  0.1841511E+03  0.7818608E-02  0.1163845E+00
         -1   -1    0    0    0  501 -0.00000000000E+00  0.00000000000E+00  0.76973534514E+02  0.76973534514E+02  0.00000000000E+00 0.  1.
          1   -1    0    0  502    0  0.00000000000E+00 -0.00000000000E+00 -0.44767481680E+03  0.44767481680E+03  0.00000000000E+00 0. -1.
          6    1    1    2  502    0  0.50374755824E+02  0.42308714653E+02 -0.21841546969E+03  0.28568682286E+03  0.17200000000E+03 0. -1.
         -6    1    1    2    0  501 -0.50374755824E+02 -0.42308714653E+02 -0.15228581260E+03  0.23896152845E+03  0.17200000000E+03 0.  1.
</event>
<event>
 4    1  0.3196149E-002  0.6121617E+03  0.7818608E-02  0.9880491E-01
         -2   -1    0    0    0  501 -0.00000000000E+00  0.00000000000E+00  0.98294034955E+03  0.98294034955E+03  0.00000000000E+00 0.  1.
          2   -1    0    0  502    0  0.00000000000E+00 -0.00000000000E+00 -0.13612395925E+04  0.13612395925E+04  0.00000000000E+00 0. -1.
          6    1    1    2  502    0  0.22160289911E+03 -0.54410480998E+03 -0.11836508503E+04  0.13325806634E+04  0.17200000000E+03 0. -1.
         -6    1    1    2    0  501 -0.22160289911E+03  0.54410480998E+03  0.80535160733E+03  0.10115992787E+04  0.17200000000E+03 0.  1.
</event>
<event>
 4    1  0.3196149E-002  0.1893839E+03  0.7818608E-02  0.1159018E+00
          2   -1    0    0  502    0  0.00000000000E+00  0.00000000000E+00  0.17109425719E+04  0.17109425719E+04  0.00000000000E+00 0. -1.
         -2   -1    0    0    0  501 -0.00000000000E+00 -0.00000000000E+00 -0.21024241670E+02  0.21024241670E+02  0.00000000000E+00 0.  1.
          6    1    1    2  502    0 -0.35284631581E+02  0.70973624764E+02  0.89174839867E+03  0.91163669692E+03  0.17200000000E+03 0. -1.
         -6    1    1    2    0  501  0.35284631581E+02 -0.70973624764E+02  0.79816993157E+03  0.82033011666E+03  0.17200000000E+03 0. -1.
</event>
<event>
 4    1  0.3196149E-002  0.2386042E+03  0.7818608E-02  0.1120726E+00
         -2   -1    0    0    0  501 -0.00000000000E+00  0.00000000000E+00  0.10647720418E+03  0.10647720418E+03  0.00000000000E+00 0.  1.
          2   -1    0    0  502    0  0.00000000000E+00 -0.00000000000E+00 -0.86889214071E+03  0.86889214071E+03  0.00000000000E+00 0. -1.
          6    1    1    2  502    0 -0.10664852791E+03 -0.12638842799E+03 -0.68366398062E+03  0.72410522829E+03  0.17200000000E+03 0. -1.
         -6    1    1    2    0  501  0.10664852791E+03  0.12638842799E+03 -0.78750955909E+02  0.25126411660E+03  0.17200000000E+03 0.  1.
</event>
<event>
 4    1  0.3196149E-002  0.1977501E+03  0.7818608E-02  0.1151651E+00
          2   -1    0    0  502    0  0.00000000000E+00  0.00000000000E+00  0.30616933733E+03  0.30616933733E+03  0.00000000000E+00 0. -1.
         -2   -1    0    0    0  501 -0.00000000000E+00 -0.00000000000E+00 -0.13343262721E+03  0.13343262721E+03  0.00000000000E+00 0.  1.
          6    1    1    2  502    0  0.96888003585E+02 -0.11567644773E+02  0.13183301979E+03  0.23766581738E+03  0.17200000000E+03 0.  1.
         -6    1    1    2    0  501 -0.96888003585E+02  0.11567644773E+02  0.40903690327E+02  0.20193614715E+03  0.17200000000E+03 0.  1.
</event>
<event>
 4    1  0.3196149E-002  0.7758781E+03  0.7818608E-02  0.9595604E-01
          2   -1    0    0  502    0  0.00000000000E+00  0.00000000000E+00  0.13260082505E+04  0.13260082505E+04  0.00000000000E+00 0. -1.
         -2   -1    0    0    0  501 -0.00000000000E+00 -0.00000000000E+00 -0.46098301010E+03  0.46098301010E+03  0.00000000000E+00 0.  1.
          6    1    1    2  502    0 -0.18666955096E+03  0.73318298038E+03  0.32241907346E+03  0.84020287009E+03  0.17200000000E+03 0. -1.
         -6    1    1    2    0  501  0.18666955096E+03 -0.73318298038E+03  0.54260616694E+03  0.94678839050E+03  0.17200000000E+03 0.  1.
</event>
<event>
 4    1  0.3196149E-002  0.3072971E+03  0.7818608E-02  0.1081649E+00
          2   -1    0    0  502    0  0.00000000000E+00  0.00000000000E+00  0.27325331232E+03  0.27325331232E+03  0.00000000000E+00 0. -1.
         -2   -1    0    0    0  501 -0.00000000000E+00 -0.00000000000E+00 -0.45107704277E+03  0.45107704277E+03  0.00000000000E+00 0.  1.
          6    1    1    2  502    0  0.22116201523E+03  0.12623349254E+03  0.86232657392E+02  0.31916704532E+03  0.17200000000E+03 0.  1.
         -6    1    1    2    0  501 -0.22116201523E+03 -0.12623349254E+03 -0.26405638785E+03  0.40516330977E+03  0.17200000000E+03 0.  1.
</event>
<event>
 4    1  0.3196149E-002  0.2376987E+03  0.7818608E-02  0.1121335E+00
          2   -1    0    0  502    0  0.00000000000E+00  0.00000000000E+00  0.24475950407E+03  0.24475950407E+03  0.00000000000E+00 0. -1.
         -2   -1    0    0    0  501 -0.00000000000E+00 -0.00000000000E+00 -0.67795051669E+03  0.67795051669E+03  0.00000000000E+00 0.  1.
          6    1    1    2  502    0 -0.10228586403E+03 -0.12827412887E+03  0.15806935119E+03  0.28545852572E+03  0.17200000000E+03 0. -1.
         -6    1    1    2    0  501  0.10228586403E+03  0.12827412887E+03 -0.59126036381E+03  0.63725149504E+03  0.17200000000E+03 0.  1.
</event>
<event>
 4    1  0.3196149E-002  0.1889201E+03  0.7818608E-02  0.1159439E+00
          1   -1    0    0  502    0  0.00000000000E+00  0.00000000000E+00  0.13247759050E+04  0.13247759050E+04  0.00000000000E+00 0. -1.
         -1   -1    0    0    0  501 -0.00000000000E+00 -0.00000000000E+00 -0.44827963516E+02  0.44827963516E+02  0.00000000000E+00 0.  1.
          6    1    1    2  502    0 -0.75939974530E+02 -0.18436947995E+02  0.10725462289E+04  0.10890574888E+04  0.17200000000E+03 0. -1.
         -6    1    1    2    0  501  0.75939974530E+02  0.18436947995E+02  0.20740171254E+03  0.28054637967E+03  0.17200000000E+03 0.  1.
</event>
<event>
 4    1  0.3196149E-002  0.3607135E+03  0.7818608E-02  0.1058302E+00
         -2   -1    0    0    0  501 -0.00000000000E+00  0.00000000000E+00  0.43049949602E+03  0.43049949602E+03  0.00000000000E+00 0.  1.
          2   -1    0    0  502    0  0.00000000000E+00 -0.00000000000E+00 -0.71690538356E+03  0.71690538356E+03  0.00000000000E+00 0. -1.
          6    1    1    2  502    0  0.10047962916E+03  0.30072259543E+03 -0.57952240529E+03  0.68261296026E+03  0.17200000000E+03 0. -1.
         -6    1    1    2    0  501 -0.10047962916E+03 -0.30072259543E+03  0.29311651775E+03  0.46479191931E+03  0.17200000000E+03 0.  1.
</event>
<event>
 4    1  0.3196149E-002  0.4752770E+03  0.7818608E-02  0.1020441E+00
          2   -1    0    0  502    0  0.00000000000E+00  0.00000000000E+00  0.10204916434E+04  0.10204916434E+04  0.00000000000E+00 0. -1.
         -2   -1    0    0    0  501 -0.00000000000E+00 -0.00000000000E+00 -0.22141357787E+03  0.22141357787E+03  0.00000000000E+00 0.  1.
          6    1    1    2  502    0 -0.18099218341E+03 -0.40440825474E+03  0.38921170114E+03  0.61430770405E+03  0.17200000000E+03 0. -1.
         -6    1    1    2    0  501  0.18099218341E+03  0.40440825474E+03  0.40986636442E+03  0.62759751723E+03  0.17200000000E+03 0.  1.
</event>
<event>
 4    1  0.3196149E-002  0.2015691E+03  0.7818608E-02  0.1148422E+00
         -1   -1    0    0    0  501 -0.00000000000E+00  0.00000000000E+00  0.13949945597E+03  0.13949945597E+03  0.00000000000E+00 0.  1.
          1   -1    0    0  502    0  0.00000000000E+00 -0.00000000000E+00 -0.30789371290E+03  0.30789371290E+03  0.00000000000E+00 0. -1.
          6    1    1    2  502    0 -0.10441540557E+03 -0.11980546920E+02 -0.13619678009E+03  0.24326872658E+03  0.17200000000E+03 0. -1.
         -6    1    1    2    0  501  0.10441540557E+03  0.11980546920E+02 -0.32197476834E+02  0.20412444229E+03  0.17200000000E+03 0.  1.
</event>
<event>
 4    1  0.3196149E-002  0.2612841E+03  0.7818608E-02  0.1106374E+00
         -1   -1    0    0    0  501 -0.00000000000E+00  0.00000000000E+00  0.18880724088E+03  0.18880724088E+03  0.00000000000E+00 0.  1.
          1   -1    0    0  502    0  0.00000000000E+00 -0.00000000000E+00 -0.36255403105E+03  0.36255403105E+03  0.00000000000E+00 0. -1.
          6    1    1    2  502    0 -0.19655968599E+03  0.70481774724E+01 -0.72602317206E+02  0.27118348664E+03  0.17200000000E+03 0.  1.
         -6    1    1    2    0  501  0.19655968599E+03 -0.70481774724E+01 -0.10114447296E+03  0.28017778529E+03  0.17200000000E+03 0.  1.
</event>
<event>
 4    1  0.3196149E-002  0.2696684E+03  0.7818608E-02  0.1101470E+00
          1   -1    0    0  502    0  0.00000000000E+00  0.00000000000E+00  0.11421680176E+04  0.11421680176E+04  0.00000000000E+00 0. -1.
         -1   -1    0    0    0  501 -0.00000000000E+00 -0.00000000000E+00 -0.66607332514E+02  0.66607332514E+02  0.00000000000E+00 0.  1.
          6    1    1    2  502    0 -0.15998343577E+03  0.13244749741E+03  0.41084492833E+03  0.49144134383E+03  0.17200000000E+03 0. -1.
         -6    1    1    2    0  501  0.15998343577E+03 -0.13244749741E+03  0.66471575676E+03  0.71733400629E+03  0.17200000000E+03 0. -1.
</event>
<event>
 4    1  0.3196149E-002  0.1832710E+03  0.7818608E-02  0.1164674E+00
          2   -1    0    0  502    0  0.00000000000E+00  0.00000000000E+00  0.10446497872E+04  0.10446497872E+04  0.00000000000E+00 0. -1.
         -2   -1    0    0    0  501 -0.00000000000E+00 -0.00000000000E+00 -0.48280877999E+02  0.48280877999E+02  0.00000000000E+00 0.  1.
          6    1    1    2  502    0  0.28820283692E+02  0.56335140635E+02  0.81402537104E+03  0.83440131922E+03  0.17200000000E+03 0. -1.
         -6    1    1    2    0  501 -0.28820283692E+02 -0.56335140635E+02  0.18234353816E+03  0.25852934598E+03  0.17200000000E+03 0.  1.
</event>
<event>
 4    1  0.3196149E-002  0.2794082E+03  0.7818608E-02  0.1096013E+00
          1   -1    0    0  502    0  0.00000000000E+00  0.00000000000E+00  0.56471825550E+03  0.56471825550E+03  0.00000000000E+00 0. -1.
         -1   -1    0    0    0  501 -0.00000000000E+00 -0.00000000000E+00 -0.22736176968E+03  0.22736176968E+03  0.00000000000E+00 0.  1.
          6    1    1    2  502    0 -0.20388217633E+03  0.83168617164E+02  0.41662719840E+03  0.50164447884E+03  0.17200000000E+03 0. -1.
         -6    1    1    2    0  501  0.20388217633E+03 -0.83168617164E+02 -0.79270712583E+02  0.29043554634E+03  0.17200000000E+03 0.  1.
</event>
<event>
 4    1  0.3196149E-002  0.2201115E+03  0.7818608E-02  0.1133800E+00
          2   -1    0    0  502    0  0.00000000000E+00  0.00000000000E+00  0.70228587526E+03  0.70228587526E+03  0.00000000000E+00 0. -1.
         -2   -1    0    0    0  501 -0.00000000000E+00 -0.00000000000E+00 -0.34756461758E+03  0.34756461758E+03  0.00000000000E+00 0.  1.
          6    1    1    2  502    0  0.13732016036E+03  0.28683612232E+01  0.64731130945E+03  0.68371118557E+03  0.17200000000E+03 0. -1.
         -6    1    1    2    0  501 -0.13732016036E+03 -0.28683612232E+01 -0.29259005177E+03  0.36613930728E+03  0.17200000000E+03 0.  1.
</event>
<event>
 4    1  0.3196149E-002  0.2609186E+03  0.7818608E-02  0.1106593E+00
          1   -1    0    0  502    0  0.00000000000E+00  0.00000000000E+00  0.46105569168E+03  0.46105569168E+03  0.00000000000E+00 0. -1.
         -1   -1    0    0    0  501 -0.00000000000E+00 -0.00000000000E+00 -0.25433580861E+03  0.25433580861E+03  0.00000000000E+00 0.  1.
          6    1    1    2  502    0 -0.19375404135E+03 -0.30885306742E+02  0.33501788857E+03  0.42463574553E+03  0.17200000000E+03 0. -1.
         -6    1    1    2    0  501  0.19375404135E+03  0.30885306742E+02 -0.12829800550E+03  0.29075575477E+03  0.17200000000E+03 0.  1.
</event>
<event>
 4    1  0.3196149E-002  0.2523372E+03  0.7818608E-02  0.1111837E+00
          1   -1    0    0  502    0  0.00000000000E+00  0.00000000000E+00  0.42345067342E+03  0.42345067342E+03  0.00000000000E+00 0. -1.
         -1   -1    0    0    0  501 -0.00000000000E+00 -0.00000000000E+00 -0.16294031950E+03  0.16294031950E+03  0.00000000000E+00 0.  1.
          6    1    1    2  502    0  0.23956132616E+02 -0.18307419255E+03  0.21169282214E+03  0.32937502518E+03  0.17200000000E+03 0. -1.
         -6    1    1    2    0  501 -0.23956132616E+02  0.18307419255E+03  0.48817531780E+02  0.25701596774E+03  0.17200000000E+03 0.  1.
</event>
<event>
 4    1  0.3196149E-002  0.2083529E+03  0.7818608E-02  0.1142877E+00
          2   -1    0    0  502    0  0.00000000000E+00  0.00000000000E+00  0.20270063419E+04  0.20270063419E+04  0.00000000000E+00 0. -1.
         -2   -1    0    0    0  501 -0.00000000000E+00 -0.00000000000E+00 -0.68980379737E+02  0.68980379737E+02  0.00000000000E+00 0.  1.
          6    1    1    2  502    0  0.13670200594E+02  0.11679064257E+03  0.18492456779E+04  0.18609461319E+04  0.17200000000E+03 0. -1.
         -6    1    1    2    0  501 -0.13670200594E+02 -0.11679064257E+03  0.10878028423E+03  0.23504058971E+03  0.17200000000E+03 0.  1.
</event>
<event>
 4    1  0.3196149E-002  0.2483981E+03  0.7818608E-02  0.1114321E+00
         -2   -1    0    0    0  501 -0.00000000000E+00  0.00000000000E+00  0.52100813742E+02  0.52100813742E+02  0.00000000000E+00 0.  1.
          2   -1    0    0  502    0  0.00000000000E+00 -0.00000000000E+00 -0.27166586726E+04  0.27166586726E+04  0.00000000000E+00 0. -1.
          6    1    1    2  502    0 -0.75089684359E+02 -0.16272415055E+03 -0.23720115674E+04  0.23849822821E+04  0.17200000000E+03 0. -1.
         -6    1    1    2    0  501  0.75089684359E+02  0.16272415055E+03 -0.29254629140E+03  0.38377720423E+03  0.17200000000E+03 0.  1.
</event>
<event>
 4    1  0.3196149E-002  0.3275343E+03  0.7818608E-02  0.1072233E+00
         -1   -1    0    0    0  501 -0.00000000000E+00  0.00000000000E+00  0.92747494557E+02  0.92747494557E+02  0.00000000000E+00 0.  1.
          1   -1    0    0  502    0  0.00000000000E+00 -0.00000000000E+00 -0.20215807215E+04  0.20215807215E+04  0.00000000000E+00 0. -1.
          6    1    1    2  502    0  0.16897566739E+03  0.22167982136E+03 -0.16558991576E+04  0.16879812616E+04  0.17200000000E+03 0. -1.
         -6    1    1    2    0  501 -0.16897566739E+03 -0.22167982136E+03 -0.27293406935E+03  0.42634695446E+03  0.17200000000E+03 0. -1.
</event>
<event>
 4    1  0.3196149E-002  0.1809684E+03  0.7818608E-02  0.1166869E+00
          2   -1    0    0  502    0  0.00000000000E+00  0.00000000000E+00  0.10068515680E+04  0.10068515680E+04  0.00000000000E+00 0. -1.
         -2   -1    0    0    0  501 -0.00000000000E+00 -0.00000000000E+00 -0.14239201392E+03  0.14239201392E+03  0.00000000000E+00 0.  1.
          6    1    1    2  502    0 -0.43021045608E+02 -0.36259704608E+02  0.93697188946E+03  0.95428816307E+03  0.17200000000E+03 0. -1.
         -6    1    1    2    0  501  0.43021045608E+02  0.36259704608E+02 -0.72512335407E+02  0.19495541883E+03  0.17200000000E+03 0.  1.
</event>
<event>
 4    1  0.3196149E-002  0.2747227E+03  0.7818608E-02  0.1098607E+00
          2   -1    0    0  502    0  0.00000000000E+00  0.00000000000E+00  0.50315676717E+03  0.50315676717E+03  0.00000000000E+00 0. -1.
         -2   -1    0    0    0  501 -0.00000000000E+00 -0.00000000000E+00 -0.16237966511E+03  0.16237966511E+03  0.00000000000E+00 0.  1.
          6    1    1    2  502    0  0.21288582872E+03  0.23836774226E+02  0.78499559748E+02  0.28571795316E+03  0.17200000000E+03 0. -1.
         -6    1    1    2    0  501 -0.21288582872E+03 -0.23836774226E+02  0.26227754231E+03  0.37981847912E+03  0.17200000000E+03 0.  1.
</event>
<event>
 4    1  0.3196149E-002  0.1729659E+03  0.7818608E-02  0.1174790E+00
         -1   -1    0    0    0  501 -0.00000000000E+00  0.00000000000E+00  0.54230522452E+02  0.54230522452E+02  0.00000000000E+00 0.  1.
          1   -1    0    0  502    0  0.00000000000E+00 -0.00000000000E+00 -0.13633945715E+04  0.13633945715E+04  0.00000000000E+00 0. -1.
          6    1    1    2  502    0  0.12084759578E+02  0.13681191823E+02 -0.12015043264E+04  0.12138903834E+04  0.17200000000E+03 0. -1.
         -6    1    1    2    0  501 -0.12084759578E+02 -0.13681191823E+02 -0.10765972264E+03  0.20373471060E+03  0.17200000000E+03 0.  1.
</event>
<event>
 4    1  0.3196149E-002  0.4147036E+03  0.7818608E-02  0.1038804E+00
          2   -1    0    0  502    0  0.00000000000E+00  0.00000000000E+00  0.13163893099E+04  0.13163893099E+04  0.00000000000E+00 0. -1.
         -2   -1    0    0    0  501 -0.00000000000E+00 -0.00000000000E+00 -0.14001485726E+03  0.14001485726E+03  0.00000000000E+00 0.  1.
          6    1    1    2  502    0  0.15594060686E+03 -0.34362418947E+03  0.77657050244E+03  0.88036401660E+03  0.17200000000E+03 0. -1.
         -6    1    1    2    0  501 -0.15594060686E+03  0.34362418947E+03  0.39980395020E+03  0.57604015056E+03  0.17200000000E+03 0.  1.
</event>
<event>
 4    1  0.3196149E-002  0.1740816E+03  0.7818608E-02  0.1173657E+00
         -2   -1    0    0    0  501 -0.00000000000E+00  0.00000000000E+00  0.36762101326E+03  0.36762101326E+03  0.00000000000E+00 0.  1.
          2   -1    0    0  502    0  0.00000000000E+00 -0.00000000000E+00 -0.10114278000E+04  0.10114278000E+04  0.00000000000E+00 0. -1.
          6    1    1    2  502    0 -0.54735481757E+01 -0.26276372436E+02 -0.98273171545E+03  0.99803107769E+03  0.17200000000E+03 0. -1.
         -6    1    1    2    0  501  0.54735481757E+01  0.26276372436E+02  0.33892492874E+03  0.38101773554E+03  0.17200000000E+03 0.  1.
</event>
<event>
 4    1  0.3196149E-002  0.3682218E+03  0.7818608E-02  0.1055375E+00
          1   -1    0    0  502    0  0.00000000000E+00  0.00000000000E+00  0.22408966939E+03  0.22408966939E+03  0.00000000000E+00 0. -1.
         -1   -1    0    0    0  501 -0.00000000000E+00 -0.00000000000E+00 -0.74273834660E+03  0.74273834660E+03  0.00000000000E+00 0.  1.
          6    1    1    2  502    0  0.32575644208E+02  0.32394774728E+03 -0.46745535336E+03  0.59506455360E+03  0.17200000000E+03 0. -1.
         -6    1    1    2    0  501 -0.32575644208E+02 -0.32394774728E+03 -0.51193323849E+02  0.37176346239E+03  0.17200000000E+03 0.  1.
</event>
<event>
 4    1  0.3196149E-002  0.1830091E+03  0.7818608E-02  0.1164922E+00
         -2   -1    0    0    0  501 -0.00000000000E+00  0.00000000000E+00  0.53733323404E+02  0.53733323404E+02  0.00000000000E+00 0.  1.
          2   -1    0    0  502    0  0.00000000000E+00 -0.00000000000E+00 -0.63031436619E+03  0.63031436619E+03  0.00000000000E+00 0. -1.
          6    1    1    2  502    0 -0.56051423706E+02  0.27687182848E+02 -0.32435365851E+03  0.37242131784E+03  0.17200000000E+03 0. -1.
         -6    1    1    2    0  501  0.56051423706E+02 -0.27687182848E+02 -0.25222738428E+03  0.31162637176E+03  0.17200000000E+03 0.  1.
</event>
<event>
 4    1  0.3196149E-002  0.1883899E+03  0.7818608E-02  0.1159922E+00
          2   -1    0    0  502    0  0.00000000000E+00  0.00000000000E+00  0.22984033725E+03  0.22984033725E+03  0.00000000000E+00 0. -1.
         -2   -1    0    0    0  501 -0.00000000000E+00 -0.00000000000E+00 -0.32001280846E+03  0.32001280846E+03  0.00000000000E+00 0.  1.
          6    1    1    2  502    0  0.49006709439E+02  0.59203791920E+02 -0.24285632530E+03  0.30735962859E+03  0.17200000000E+03 0.  1.
         -6    1    1    2    0  501 -0.49006709439E+02 -0.59203791920E+02  0.15268385409E+03  0.24249351712E+03  0.17200000000E+03 0. -1.
</event>
<event>
 4    1  0.3196149E-002  0.1899073E+03  0.7818608E-02  0.1158545E+00
          2   -1    0    0  502    0  0.00000000000E+00  0.00000000000E+00  0.37945162907E+04  0.37945162907E+04  0.00000000000E+00 0. -1.
         -2   -1    0    0    0  501 -0.00000000000E+00 -0.00000000000E+00 -0.95095662034E+01  0.95095662034E+01  0.00000000000E+00 0.  1.
          6    1    1    2  502    0 -0.50498708413E+02 -0.62695100406E+02  0.19366150058E+04  0.19459040253E+04  0.17200000000E+03 0. -1.
         -6    1    1    2    0  501  0.50498708413E+02  0.62695100406E+02  0.18483917188E+04  0.18581218316E+04  0.17200000000E+03 0. -1.
</event>
<event>
 4    1  0.3196149E-002  0.2052651E+03  0.7818608E-02  0.1145371E+00
         -3   -1    0    0    0  501 -0.00000000000E+00  0.00000000000E+00  0.54761268882E+02  0.54761268882E+02  0.00000000000E+00 0.  1.
          3   -1    0    0  502    0  0.00000000000E+00 -0.00000000000E+00 -0.78975670410E+03  0.78975670410E+03  0.00000000000E+00 0. -1.
          6    1    1    2  502    0 -0.30016154239E+02 -0.10792958059E+03 -0.43527740226E+03  0.48124856447E+03  0.17200000000E+03 0.  1.
         -6    1    1    2    0  501  0.30016154239E+02  0.10792958059E+03 -0.29971803295E+03  0.36326940851E+03  0.17200000000E+03 0. -1.
</event>
<event>
 4    1  0.3196149E-002  0.2288220E+03  0.7818608E-02  0.1127472E+00
          1   -1    0    0  502    0  0.00000000000E+00  0.00000000000E+00  0.99142553880E+02  0.99142553880E+02  0.00000000000E+00 0. -1.
         -1   -1    0    0    0  501 -0.00000000000E+00 -0.00000000000E+00 -0.65225310673E+03  0.65225310673E+03  0.00000000000E+00 0.  1.
          6    1    1    2  502    0 -0.49320557067E+02  0.14262891817E+03 -0.11265938472E+03  0.25505227428E+03  0.17200000000E+03 0. -1.
         -6    1    1    2    0  501  0.49320557067E+02 -0.14262891817E+03 -0.44045116813E+03  0.49634338633E+03  0.17200000000E+03 0.  1.
</event>
<event>
 4    1  0.3196149E-002  0.2565930E+03  0.7818608E-02  0.1109208E+00
          2   -1    0    0  502    0  0.00000000000E+00  0.00000000000E+00  0.24486209260E+04  0.24486209260E+04  0.00000000000E+00 0. -1.
         -2   -1    0    0    0  501 -0.00000000000E+00 -0.00000000000E+00 -0.26888774267E+02  0.26888774267E+02  0.00000000000E+00 0.  1.
          6    1    1    2  502    0 -0.14792295996E+03  0.11989485997E+03  0.12140505640E+04  0.12408701590E+04  0.17200000000E+03 0. -1.
         -6    1    1    2    0  501  0.14792295996E+03 -0.11989485997E+03  0.12076815878E+04  0.12346395413E+04  0.17200000000E+03 0.  1.
</event>
<event>
 4    1  0.3196149E-002  0.2860580E+03  0.7818608E-02  0.1092425E+00
          2   -1    0    0  502    0  0.00000000000E+00  0.00000000000E+00  0.89565762105E+03  0.89565762105E+03  0.00000000000E+00 0. -1.
         -2   -1    0    0    0  501 -0.00000000000E+00 -0.00000000000E+00 -0.93457623129E+02  0.93457623129E+02  0.00000000000E+00 0.  1.
          6    1    1    2  502    0 -0.15808669319E+03 -0.16508711364E+03  0.47515530255E+03  0.55461853484E+03  0.17200000000E+03 0. -1.
         -6    1    1    2    0  501  0.15808669319E+03  0.16508711364E+03  0.32704469538E+03  0.43449670934E+03  0.17200000000E+03 0.  1.
</event>
<event>
 4    1  0.3196149E-002  0.2406567E+03  0.7818608E-02  0.1119356E+00
         -1   -1    0    0    0  501 -0.00000000000E+00  0.00000000000E+00  0.43041537223E+02  0.43041537223E+02  0.00000000000E+00 0.  1.
          1   -1    0    0  502    0  0.00000000000E+00 -0.00000000000E+00 -0.17811612618E+04  0.17811612618E+04  0.00000000000E+00 0. -1.
          6    1    1    2  502    0  0.11702208704E+03  0.12098539875E+03 -0.13201136841E+04  0.13418702525E+04  0.17200000000E+03 0.  1.
         -6    1    1    2    0  501 -0.11702208704E+03 -0.12098539875E+03 -0.41800604044E+03  0.48233254650E+03  0.17200000000E+03 0.  1.
</event>
<event>
 4    1  0.3196149E-002  0.2720477E+03  0.7818608E-02  0.1100113E+00
         -1   -1    0    0    0  501 -0.00000000000E+00  0.00000000000E+00  0.43433076929E+02  0.43433076929E+02  0.00000000000E+00 0.  1.
          1   -1    0    0  502    0  0.00000000000E+00 -0.00000000000E+00 -0.20564464157E+04  0.20564464157E+04  0.00000000000E+00 0. -1.
          6    1    1    2  502    0 -0.16369188972E+03  0.13278146939E+03 -0.14411693607E+04  0.14666216552E+04  0.17200000000E+03 0. -1.
         -6    1    1    2    0  501  0.16369188972E+03 -0.13278146939E+03 -0.57184397810E+03  0.63325783743E+03  0.17200000000E+03 0.  1.
</event>
<event>
 4    1  0.3196149E-002  0.1929347E+03  0.7818608E-02  0.1155841E+00
         -4   -1    0    0    0  501 -0.00000000000E+00  0.00000000000E+00  0.35525961270E+03  0.35525961270E+03  0.00000000000E+00 0.  1.
          4   -1    0    0  502    0  0.00000000000E+00 -0.00000000000E+00 -0.16411882020E+03  0.16411882020E+03  0.00000000000E+00 0. -1.
          6    1    1    2  502    0  0.84848525874E+02  0.20988840096E+02  0.25172228832E+03  0.31715597770E+03  0.17200000000E+03 0.  1.
         -6    1    1    2    0  501 -0.84848525874E+02 -0.20988840096E+02 -0.60581495826E+02  0.20222245520E+03  0.17200000000E+03 0. -1.
</event>
<event>
 4    1  0.3196149E-002  0.4643232E+03  0.7818608E-02  0.1023535E+00
         -1   -1    0    0    0  501 -0.00000000000E+00  0.00000000000E+00  0.41689616054E+03  0.41689616054E+03  0.00000000000E+00 0.  1.
          1   -1    0    0  502    0  0.00000000000E+00 -0.00000000000E+00 -0.52105739877E+03  0.52105739877E+03  0.00000000000E+00 0. -1.
          6    1    1    2  502    0  0.30959516571E+03 -0.30027128883E+03 -0.92715315288E+02  0.47348932745E+03  0.17200000000E+03 0. -1.
         -6    1    1    2    0  501 -0.30959516571E+03  0.30027128883E+03 -0.11445922949E+02  0.46446423186E+03  0.17200000000E+03 0. -1.
</event>
<event>
 4    1  0.3196149E-002  0.2352932E+03  0.7818608E-02  0.1122969E+00
         -1   -1    0    0    0  501 -0.00000000000E+00  0.00000000000E+00  0.18845545969E+03  0.18845545969E+03  0.00000000000E+00 0.  1.
          1   -1    0    0  502    0  0.00000000000E+00 -0.00000000000E+00 -0.58866937860E+03  0.58866937860E+03  0.00000000000E+00 0. -1.
          6    1    1    2  502    0  0.30914674180E+02 -0.15755369932E+03 -0.47512471354E+03  0.53019466111E+03  0.17200000000E+03 0. -1.
         -6    1    1    2    0  501 -0.30914674180E+02  0.15755369932E+03  0.74910794633E+02  0.24693017718E+03  0.17200000000E+03 0.  1.
</event>
<event>
 4    1  0.3196149E-002  0.4212841E+03  0.7818608E-02  0.1036649E+00
         -2   -1    0    0    0  501 -0.00000000000E+00  0.00000000000E+00  0.15705159922E+03  0.15705159922E+03  0.00000000000E+00 0.  1.
          2   -1    0    0  502    0  0.00000000000E+00 -0.00000000000E+00 -0.14903945452E+04  0.14903945452E+04  0.00000000000E+00 0. -1.
          6    1    1    2  502    0  0.20105158284E+02 -0.38404700405E+03 -0.10716888174E+04  0.11515195352E+04  0.17200000000E+03 0. -1.
         -6    1    1    2    0  501 -0.20105158284E+02  0.38404700405E+03 -0.26165412862E+03  0.49592660921E+03  0.17200000000E+03 0.  1.
</event>
<event>
 4    1  0.3196149E-002  0.2566894E+03  0.7818608E-02  0.1109149E+00
         -1   -1    0    0    0  501 -0.00000000000E+00  0.00000000000E+00  0.17634029679E+03  0.17634029679E+03  0.00000000000E+00 0.  1.
          1   -1    0    0  502    0  0.00000000000E+00 -0.00000000000E+00 -0.38446760273E+03  0.38446760273E+03  0.00000000000E+00 0. -1.
          6    1    1    2  502    0  0.19019701642E+03 -0.11425502694E+02 -0.15109979437E+03  0.29786002590E+03  0.17200000000E+03 0. -1.
         -6    1    1    2    0  501 -0.19019701642E+03  0.11425502694E+02 -0.57027511570E+02  0.26294787362E+03  0.17200000000E+03 0.  1.
</event>
<event>
 4    1  0.3196149E-002  0.2341604E+03  0.7818608E-02  0.1123745E+00
         -1   -1    0    0    0  501 -0.00000000000E+00  0.00000000000E+00  0.33436390818E+03  0.33436390818E+03  0.00000000000E+00 0.  1.
          1   -1    0    0  502    0  0.00000000000E+00 -0.00000000000E+00 -0.16861448716E+03  0.16861448716E+03  0.00000000000E+00 0. -1.
          6    1    1    2  502    0  0.25547198983E+02 -0.15682617818E+03  0.41209264762E+02  0.23775893893E+03  0.17200000000E+03 0. -1.
         -6    1    1    2    0  501 -0.25547198983E+02  0.15682617818E+03  0.12454015626E+03  0.26521945641E+03  0.17200000000E+03 0.  1.
</event>
<event>
 4    1  0.3196149E-002  0.3125159E+03  0.7818608E-02  0.1079146E+00
         -1   -1    0    0    0  501 -0.00000000000E+00  0.00000000000E+00  0.67971546753E+02  0.67971546753E+02  0.00000000000E+00 0.  1.
          1   -1    0    0  502    0  0.00000000000E+00 -0.00000000000E+00 -0.16135204582E+04  0.16135204582E+04  0.00000000000E+00 0. -1.
          6    1    1    2  502    0 -0.16856579583E+03 -0.19916773083E+03 -0.10509609951E+04  0.10964420758E+04  0.17200000000E+03 0. -1.
         -6    1    1    2    0  501  0.16856579583E+03  0.19916773083E+03 -0.49458791640E+03  0.58504992913E+03  0.17200000000E+03 0.  1.
</event>
<event>
 4    1  0.3196149E-002  0.1779055E+03  0.7818608E-02  0.1169846E+00
          1   -1    0    0  502    0  0.00000000000E+00  0.00000000000E+00  0.41257311450E+03  0.41257311450E+03  0.00000000000E+00 0. -1.
         -1   -1    0    0    0  501 -0.00000000000E+00 -0.00000000000E+00 -0.80130318751E+02  0.80130318751E+02  0.00000000000E+00 0.  1.
          6    1    1    2  502    0 -0.20058257616E+00 -0.45457004883E+02  0.21708399192E+03  0.28067033879E+03  0.17200000000E+03 0. -1.
         -6    1    1    2    0  501  0.20058257616E+00  0.45457004883E+02  0.11535880382E+03  0.21203309446E+03  0.17200000000E+03 0.  1.
</event>
<event>
 4    1  0.3196149E-002  0.5093485E+03  0.7818608E-02  0.1011367E+00
         -2   -1    0    0    0  501 -0.00000000000E+00  0.00000000000E+00  0.23221543146E+03  0.23221543146E+03  0.00000000000E+00 0.  1.
          2   -1    0    0  502    0  0.00000000000E+00 -0.00000000000E+00 -0.11828013446E+04  0.11828013446E+04  0.00000000000E+00 0. -1.
          6    1    1    2  502    0  0.36261381292E+03 -0.31362890913E+03 -0.64188864986E+03  0.81942474260E+03  0.17200000000E+03 0. -1.
         -6    1    1    2    0  501 -0.36261381292E+03  0.31362890913E+03 -0.30869726326E+03  0.59559203345E+03  0.17200000000E+03 0.  1.
</event>
<event>
 4    1  0.3196149E-002  0.1863912E+03  0.7818608E-02  0.1161757E+00
         -2   -1    0    0    0  501 -0.00000000000E+00  0.00000000000E+00  0.25819745807E+02  0.25819745807E+02  0.00000000000E+00 0.  1.
          2   -1    0    0  502    0  0.00000000000E+00 -0.00000000000E+00 -0.15265651363E+04  0.15265651363E+04  0.00000000000E+00 0. -1.
          6    1    1    2  502    0 -0.66250105678E+02 -0.27723677808E+02 -0.10176566626E+04  0.10345853091E+04  0.17200000000E+03 0. -1.
         -6    1    1    2    0  501  0.66250105678E+02  0.27723677808E+02 -0.48308872783E+03  0.51779957297E+03  0.17200000000E+03 0.  1.
</event>
<event>
 4    1  0.3196149E-002  0.3255936E+03  0.7818608E-02  0.1073103E+00
         -2   -1    0    0    0  501 -0.00000000000E+00  0.00000000000E+00  0.63630045489E+02  0.63630045489E+02  0.00000000000E+00 0.  1.
          2   -1    0    0  502    0  0.00000000000E+00 -0.00000000000E+00 -0.22545006601E+04  0.22545006601E+04  0.00000000000E+00 0. -1.
          6    1    1    2  502    0 -0.12111551248E+02 -0.27618930380E+03 -0.16875904988E+04  0.17187125743E+04  0.17200000000E+03 0. -1.
         -6    1    1    2    0  501  0.12111551248E+02  0.27618930380E+03 -0.50328011574E+03  0.59941813128E+03  0.17200000000E+03 0.  1.
</event>
<event>
 4    1  0.3196149E-002  0.1776878E+03  0.7818608E-02  0.1170060E+00
          2   -1    0    0  502    0  0.00000000000E+00  0.00000000000E+00  0.22060884708E+04  0.22060884708E+04  0.00000000000E+00 0. -1.
         -2   -1    0    0    0  501 -0.00000000000E+00 -0.00000000000E+00 -0.10529425751E+03  0.10529425751E+03  0.00000000000E+00 0.  1.
          6    1    1    2  502    0  0.16245494720E+02 -0.41533649404E+02  0.21246796149E+04  0.21320967206E+04  0.17200000000E+03 0. -1.
         -6    1    1    2    0  501 -0.16245494720E+02  0.41533649404E+02 -0.23885401633E+02  0.17928600766E+03  0.17200000000E+03 0.  1.
</event>
<event>
 4    1  0.3196149E-002  0.2958870E+03  0.7818608E-02  0.1087315E+00
          1   -1    0    0  502    0  0.00000000000E+00  0.00000000000E+00  0.72216874183E+03  0.72216874183E+03  0.00000000000E+00 0. -1.
         -1   -1    0    0    0  501 -0.00000000000E+00 -0.00000000000E+00 -0.14570595742E+03  0.14570595742E+03  0.00000000000E+00 0.  1.
          6    1    1    2  502    0  0.17675798208E+02  0.24010977219E+03  0.46608005558E+03  0.55206861417E+03  0.17200000000E+03 0. -1.
         -6    1    1    2    0  501 -0.17675798208E+02 -0.24010977219E+03  0.11038272883E+03  0.31580608507E+03  0.17200000000E+03 0.  1.
</event>
<event>
 4    1  0.3196149E-002  0.2406017E+03  0.7818608E-02  0.1119393E+00
          2   -1    0    0  502    0  0.00000000000E+00  0.00000000000E+00  0.30147017594E+04  0.30147017594E+04  0.00000000000E+00 0. -1.
         -2   -1    0    0    0  501 -0.00000000000E+00 -0.00000000000E+00 -0.22654955936E+02  0.22654955936E+02  0.00000000000E+00 0.  1.
          6    1    1    2  502    0 -0.80337783270E+02 -0.14782096420E+03  0.20888955760E+04  0.21027063333E+04  0.17200000000E+03 0. -1.
         -6    1    1    2    0  501  0.80337783270E+02  0.14782096420E+03  0.90315122746E+03  0.93465038199E+03  0.17200000000E+03 0.  1.
</event>
<event>
 4    1  0.3196149E-002  0.2612165E+03  0.7818608E-02  0.1106415E+00
         -1   -1    0    0    0  501 -0.00000000000E+00  0.00000000000E+00  0.11355093909E+03  0.11355093909E+03  0.00000000000E+00 0.  1.
          1   -1    0    0  502    0  0.00000000000E+00 -0.00000000000E+00 -0.61017345158E+03  0.61017345158E+03  0.00000000000E+00 0. -1.
          6    1    1    2  502    0 -0.19556910769E+03 -0.20069227300E+02 -0.20372808201E+03  0.33126904649E+03  0.17200000000E+03 0.  1.
         -6    1    1    2    0  501  0.19556910769E+03  0.20069227300E+02 -0.29289443048E+03  0.39245534418E+03  0.17200000000E+03 0. -1.
</event>
<event>
 4    1  0.3196149E-002  0.1987905E+03  0.7818608E-02  0.1150763E+00
          2   -1    0    0  502    0  0.00000000000E+00  0.00000000000E+00  0.84409905040E+03  0.84409905040E+03  0.00000000000E+00 0. -1.
         -2   -1    0    0    0  501 -0.00000000000E+00 -0.00000000000E+00 -0.10158409152E+03  0.10158409152E+03  0.00000000000E+00 0.  1.
          6    1    1    2  502    0 -0.67237488033E+02  0.73571621592E+02  0.24069171227E+02  0.20024232396E+03  0.17200000000E+03 0.  1.
         -6    1    1    2    0  501  0.67237488033E+02 -0.73571621592E+02  0.71844578765E+03  0.74544081796E+03  0.17200000000E+03 0. -1.
</event>
<event>
 4    1  0.3196149E-002  0.1763940E+03  0.7818608E-02  0.1171339E+00
          2   -1    0    0  502    0  0.00000000000E+00  0.00000000000E+00  0.27356556263E+03  0.27356556263E+03  0.00000000000E+00 0. -1.
         -2   -1    0    0    0  501 -0.00000000000E+00 -0.00000000000E+00 -0.11657032505E+03  0.11657032505E+03  0.00000000000E+00 0.  1.
          6    1    1    2  502    0  0.18784690374E+01  0.39081024528E+02  0.48092410027E+02  0.18283253273E+03  0.17200000000E+03 0.  1.
         -6    1    1    2    0  501 -0.18784690374E+01 -0.39081024528E+02  0.10890282755E+03  0.20730335495E+03  0.17200000000E+03 0.  1.
</event>
<event>
 4    1  0.3196149E-002  0.2211289E+03  0.7818608E-02  0.1133044E+00
          1   -1    0    0  502    0  0.00000000000E+00  0.00000000000E+00  0.10858777350E+04  0.10858777350E+04  0.00000000000E+00 0. -1.
         -1   -1    0    0    0  501 -0.00000000000E+00 -0.00000000000E+00 -0.45787702131E+02  0.45787702131E+02  0.00000000000E+00 0.  1.
          6    1    1    2  502    0  0.41308331851E+02 -0.13269365663E+03  0.44729677771E+03  0.49897133399E+03  0.17200000000E+03 0. -1.
         -6    1    1    2    0  501 -0.41308331851E+02  0.13269365663E+03  0.59279325517E+03  0.63269410316E+03  0.17200000000E+03 0. -1.
</event>
<event>
 4    1  0.3196149E-002  0.5898994E+03  0.7818608E-02  0.9926586E-01
          1   -1    0    0  502    0  0.00000000000E+00  0.00000000000E+00  0.53293584580E+03  0.53293584580E+03  0.00000000000E+00 0. -1.
         -1   -1    0    0    0  501 -0.00000000000E+00 -0.00000000000E+00 -0.65371463081E+03  0.65371463081E+03  0.00000000000E+00 0.  1.
          6    1    1    2  502    0  0.49212108211E+03  0.27606913297E+03 -0.40118955086E+02  0.59126208757E+03  0.17200000000E+03 0. -1.
         -6    1    1    2    0  501 -0.49212108211E+03 -0.27606913297E+03 -0.80659829923E+02  0.59538838904E+03  0.17200000000E+03 0.  1.
</event>
<event>
 4    1  0.3196149E-002  0.1750423E+03  0.7818608E-02  0.1172689E+00
          2   -1    0    0  502    0  0.00000000000E+00  0.00000000000E+00  0.21869445433E+03  0.21869445433E+03  0.00000000000E+00 0. -1.
         -2   -1    0    0    0  501 -0.00000000000E+00 -0.00000000000E+00 -0.15973133650E+03  0.15973133650E+03  0.00000000000E+00 0.  1.
          6    1    1    2  502    0 -0.16878935122E+02  0.27765504617E+02 -0.36845958973E+02  0.17887830050E+03  0.17200000000E+03 0.  1.
         -6    1    1    2    0  501  0.16878935122E+02 -0.27765504617E+02  0.95809076804E+02  0.19954749033E+03  0.17200000000E+03 0.  1.
</event>
<event>
 4    1  0.3196149E-002  0.1936062E+03  0.7818608E-02  0.1155248E+00
          1   -1    0    0  502    0  0.00000000000E+00  0.00000000000E+00  0.41968626043E+03  0.41968626043E+03  0.00000000000E+00 0. -1.
         -1   -1    0    0    0  501 -0.00000000000E+00 -0.00000000000E+00 -0.92817646715E+02  0.92817646715E+02  0.00000000000E+00 0.  1.
          6    1    1    2  502    0 -0.55283107044E+02 -0.69592669772E+02  0.21322927431E+03  0.28801056410E+03  0.17200000000E+03 0. -1.
         -6    1    1    2    0  501  0.55283107044E+02  0.69592669772E+02  0.11363933940E+03  0.22449334304E+03  0.17200000000E+03 0.  1.
</event>
<event>
 4    1  0.3196149E-002  0.1807446E+03  0.7818608E-02  0.1167084E+00
         -2   -1    0    0    0  501 -0.00000000000E+00  0.00000000000E+00  0.22600653816E+02  0.22600653816E+02  0.00000000000E+00 0.  1.
          2   -1    0    0  502    0  0.00000000000E+00 -0.00000000000E+00 -0.16039067945E+04  0.16039067945E+04  0.00000000000E+00 0. -1.
          6    1    1    2  502    0  0.44203243175E+02  0.33625838143E+02 -0.10462532100E+04  0.10617506313E+04  0.17200000000E+03 0. -1.
         -6    1    1    2    0  501 -0.44203243175E+02 -0.33625838143E+02 -0.53505293071E+03  0.56475681701E+03  0.17200000000E+03 0.  1.
</event>
<event>
 4    1  0.3196149E-002  0.1742244E+03  0.7818608E-02  0.1173513E+00
          1   -1    0    0  502    0  0.00000000000E+00  0.00000000000E+00  0.33504033410E+03  0.33504033410E+03  0.00000000000E+00 0. -1.
         -1   -1    0    0    0  501 -0.00000000000E+00 -0.00000000000E+00 -0.11460898226E+03  0.11460898226E+03  0.00000000000E+00 0.  1.
          6    1    1    2  502    0  0.48954895899E+01  0.27316357479E+02  0.73109967557E+01  0.17437775052E+03  0.17200000000E+03 0.  1.
         -6    1    1    2    0  501 -0.48954895899E+01 -0.27316357479E+02  0.21312035508E+03  0.27527156583E+03  0.17200000000E+03 0. -1.
</event>
<event>
 4    1  0.3196149E-002  0.4726486E+03  0.7818608E-02  0.1021175E+00
          2   -1    0    0  502    0  0.00000000000E+00  0.00000000000E+00  0.59273181377E+03  0.59273181377E+03  0.00000000000E+00 0. -1.
         -2   -1    0    0    0  501 -0.00000000000E+00 -0.00000000000E+00 -0.38424743098E+03  0.38424743098E+03  0.00000000000E+00 0.  1.
          6    1    1    2  502    0  0.22436825672E+03  0.37877648984E+03  0.17182104574E+03  0.50291074321E+03  0.17200000000E+03 0. -1.
         -6    1    1    2    0  501 -0.22436825672E+03 -0.37877648984E+03  0.36663337049E+02  0.47406850155E+03  0.17200000000E+03 0. -1.
</event>
<event>
 4    1  0.3196149E-002  0.1834719E+03  0.7818608E-02  0.1164485E+00
          2   -1    0    0  502    0  0.00000000000E+00  0.00000000000E+00  0.18223487802E+03  0.18223487802E+03  0.00000000000E+00 0. -1.
         -2   -1    0    0    0  501 -0.00000000000E+00 -0.00000000000E+00 -0.21239842257E+03  0.21239842257E+03  0.00000000000E+00 0.  1.
          6    1    1    2  502    0 -0.57115809568E+02 -0.28561070840E+02  0.56150903451E+02  0.19187202617E+03  0.17200000000E+03 0. -1.
         -6    1    1    2    0  501  0.57115809568E+02  0.28561070840E+02 -0.86314447993E+02  0.20276127442E+03  0.17200000000E+03 0.  1.
</event>
<event>
 4    1  0.3196149E-002  0.2580719E+03  0.7818608E-02  0.1108307E+00
          2   -1    0    0  502    0  0.00000000000E+00  0.00000000000E+00  0.22468503421E+04  0.22468503421E+04  0.00000000000E+00 0. -1.
         -2   -1    0    0    0  501 -0.00000000000E+00 -0.00000000000E+00 -0.35929006078E+02  0.35929006078E+02  0.00000000000E+00 0.  1.
          6    1    1    2  502    0 -0.18599457286E+03 -0.49225282903E+02  0.15829170598E+04  0.16038165505E+04  0.17200000000E+03 0. -1.
         -6    1    1    2    0  501  0.18599457286E+03  0.49225282903E+02  0.62800427621E+03  0.67896279761E+03  0.17200000000E+03 0.  1.
</event>
<event>
 4    1  0.3196149E-002  0.5832878E+03  0.7818608E-02  0.9940698E-01
         -2   -1    0    0    0  501 -0.00000000000E+00  0.00000000000E+00  0.68985753372E+03  0.68985753372E+03  0.00000000000E+00 0.  1.
          2   -1    0    0  502    0  0.00000000000E+00 -0.00000000000E+00 -0.49318841482E+03  0.49318841482E+03  0.00000000000E+00 0. -1.
          6    1    1    2  502    0  0.36959667105E+03  0.41717976899E+03  0.10062128519E+03  0.59190311871E+03  0.17200000000E+03 0. -1.
         -6    1    1    2    0  501 -0.36959667105E+03 -0.41717976899E+03  0.96047833709E+02  0.59114282983E+03  0.17200000000E+03 0.  1.
</event>
<event>
 4    1  0.3196149E-002  0.5319597E+03  0.7818608E-02  0.1005758E+00
          3   -1    0    0  502    0  0.00000000000E+00  0.00000000000E+00  0.48972880501E+03  0.48972880501E+03  0.00000000000E+00 0. -1.
         -3   -1    0    0    0  501 -0.00000000000E+00 -0.00000000000E+00 -0.60691096916E+03  0.60691096916E+03  0.00000000000E+00 0.  1.
          6    1    1    2  502    0 -0.21410543599E+03 -0.45558313739E+03  0.61430293327E+02  0.53549492410E+03  0.17200000000E+03 0. -1.
         -6    1    1    2    0  501  0.21410543599E+03  0.45558313739E+03 -0.17861245747E+03  0.56114485007E+03  0.17200000000E+03 0.  1.
</event>
<event>
 4    1  0.3196149E-002  0.3024910E+03  0.7818608E-02  0.1084002E+00
          2   -1    0    0  502    0  0.00000000000E+00  0.00000000000E+00  0.10620384632E+04  0.10620384632E+04  0.00000000000E+00 0. -1.
         -2   -1    0    0    0  501 -0.00000000000E+00 -0.00000000000E+00 -0.12912020098E+03  0.12912020098E+03  0.00000000000E+00 0.  1.
          6    1    1    2  502    0  0.21355377330E+03 -0.12771679835E+03  0.81001454848E+03  0.86465274152E+03  0.17200000000E+03 0. -1.
         -6    1    1    2    0  501 -0.21355377330E+03  0.12771679835E+03  0.12290371373E+03  0.32650592264E+03  0.17200000000E+03 0.  1.
</event>
<event>
 4    1  0.3196149E-002  0.1916318E+03  0.7818608E-02  0.1156998E+00
          2   -1    0    0  502    0  0.00000000000E+00  0.00000000000E+00  0.52788789949E+03  0.52788789949E+03  0.00000000000E+00 0. -1.
         -2   -1    0    0    0  501 -0.00000000000E+00 -0.00000000000E+00 -0.73821910905E+02  0.73821910905E+02  0.00000000000E+00 0.  1.
          6    1    1    2  502    0  0.13283344706E+02  0.83440473379E+02  0.15479116661E+03  0.24633932919E+03  0.17200000000E+03 0.  1.
         -6    1    1    2    0  501 -0.13283344706E+02 -0.83440473379E+02  0.29927482197E+03  0.35537048120E+03  0.17200000000E+03 0. -1.
</event>
<event>
 4    1  0.3196149E-002  0.2237076E+03  0.7818608E-02  0.1131149E+00
          1   -1    0    0  502    0  0.00000000000E+00  0.00000000000E+00  0.24517698981E+03  0.24517698981E+03  0.00000000000E+00 0. -1.
         -1   -1    0    0    0  501 -0.00000000000E+00 -0.00000000000E+00 -0.21482886251E+03  0.21482886251E+03  0.00000000000E+00 0.  1.
          6    1    1    2  502    0 -0.50988987777E+02 -0.13364581322E+03 -0.36182466723E+02  0.22661476378E+03  0.17200000000E+03 0.  1.
         -6    1    1    2    0  501  0.50988987777E+02  0.13364581322E+03  0.66530594028E+02  0.23339108853E+03  0.17200000000E+03 0.  1.
</event>
<event>
 4    1  0.3196149E-002  0.1936592E+03  0.7818608E-02  0.1155202E+00
          2   -1    0    0  502    0  0.00000000000E+00  0.00000000000E+00  0.46508618869E+02  0.46508618869E+02  0.00000000000E+00 0. -1.
         -2   -1    0    0    0  501 -0.00000000000E+00 -0.00000000000E+00 -0.81445123645E+03  0.81445123645E+03  0.00000000000E+00 0.  1.
          6    1    1    2  502    0  0.77043585619E+02  0.44543979249E+02 -0.34113225280E+03  0.39226916024E+03  0.17200000000E+03 0. -1.
         -6    1    1    2    0  501 -0.77043585619E+02 -0.44543979249E+02 -0.42681036478E+03  0.46869069508E+03  0.17200000000E+03 0. -1.
</event>
<event>
 4    1  0.3196149E-002  0.3085166E+03  0.7818608E-02  0.1081059E+00
         -1   -1    0    0    0  501 -0.00000000000E+00  0.00000000000E+00  0.64557645345E+02  0.64557645345E+02  0.00000000000E+00 0.  1.
          1   -1    0    0  502    0  0.00000000000E+00 -0.00000000000E+00 -0.14892044264E+04  0.14892044264E+04  0.00000000000E+00 0. -1.
          6    1    1    2  502    0 -0.24485043509E+03 -0.75144905899E+02 -0.63481150816E+03  0.70581027432E+03  0.17200000000E+03 0. -1.
         -6    1    1    2    0  501  0.24485043509E+03  0.75144905899E+02 -0.78983527293E+03  0.84795179746E+03  0.17200000000E+03 0.  1.
</event>
<event>
 4    1  0.3196149E-002  0.2238788E+03  0.7818608E-02  0.1131024E+00
          2   -1    0    0  502    0  0.00000000000E+00  0.00000000000E+00  0.79229154112E+03  0.79229154112E+03  0.00000000000E+00 0. -1.
         -2   -1    0    0    0  501 -0.00000000000E+00 -0.00000000000E+00 -0.85643634561E+02  0.85643634561E+02  0.00000000000E+00 0.  1.
          6    1    1    2  502    0 -0.20424473496E+02 -0.14184696759E+03  0.57772949564E+03  0.61959106794E+03  0.17200000000E+03 0. -1.
         -6    1    1    2    0  501  0.20424473496E+02  0.14184696759E+03  0.12891841092E+03  0.25834410775E+03  0.17200000000E+03 0.  1.
</event>
<event>
 4    1  0.3196149E-002  0.4151762E+03  0.7818608E-02  0.1038648E+00
         -1   -1    0    0    0  501 -0.00000000000E+00  0.00000000000E+00  0.14306586268E+03  0.14306586268E+03  0.00000000000E+00 0.  1.
          1   -1    0    0  502    0  0.00000000000E+00 -0.00000000000E+00 -0.14655345692E+04  0.14655345692E+04  0.00000000000E+00 0. -1.
          6    1    1    2  502    0  0.34934470919E+03  0.14403319790E+03 -0.10004588658E+04  0.10831847627E+04  0.17200000000E+03 0. -1.
         -6    1    1    2    0  501 -0.34934470919E+03 -0.14403319790E+03 -0.32200984072E+03  0.52541566921E+03  0.17200000000E+03 0.  1.
</event>
<event>
 4    1  0.3196149E-002  0.3039942E+03  0.7818608E-02  0.1083261E+00
         -1   -1    0    0    0  501 -0.00000000000E+00  0.00000000000E+00  0.66308003751E+02  0.66308003751E+02  0.00000000000E+00 0.  1.
          1   -1    0    0  502    0  0.00000000000E+00 -0.00000000000E+00 -0.25697744999E+04  0.25697744999E+04  0.00000000000E+00 0. -1.
          6    1    1    2  502    0 -0.17877321740E+03 -0.17569456602E+03 -0.21433983205E+04  0.21648484483E+04  0.17200000000E+03 0. -1.
         -6    1    1    2    0  501  0.17877321740E+03  0.17569456602E+03 -0.36006817557E+03  0.47123405527E+03  0.17200000000E+03 0.  1.
</event>
<event>
 4    1  0.3196149E-002  0.2075685E+03  0.7818608E-02  0.1143506E+00
         -2   -1    0    0    0  501 -0.00000000000E+00  0.00000000000E+00  0.13659175301E+03  0.13659175301E+03  0.00000000000E+00 0.  1.
          2   -1    0    0  502    0  0.00000000000E+00 -0.00000000000E+00 -0.31554127684E+03  0.31554127684E+03  0.00000000000E+00 0. -1.
          6    1    1    2  502    0  0.11478193063E+03  0.18049424492E+02 -0.93784302339E+02  0.22777218594E+03  0.17200000000E+03 0. -1.
         -6    1    1    2    0  501 -0.11478193063E+03 -0.18049424492E+02 -0.85165221500E+02  0.22436084390E+03  0.17200000000E+03 0.  1.
</event>
<event>
 4    1  0.3196149E-002  0.2217623E+03  0.7818608E-02  0.1132576E+00
         -2   -1    0    0    0  501 -0.00000000000E+00  0.00000000000E+00  0.20339365911E+03  0.20339365911E+03  0.00000000000E+00 0.  1.
          2   -1    0    0  502    0  0.00000000000E+00 -0.00000000000E+00 -0.94425412018E+03  0.94425412018E+03  0.00000000000E+00 0. -1.
          6    1    1    2  502    0 -0.12496663394E+03  0.63070398227E+02 -0.86536308229E+03  0.89332625558E+03  0.17200000000E+03 0. -1.
         -6    1    1    2    0  501  0.12496663394E+03 -0.63070398227E+02  0.12450262122E+03  0.25432152371E+03  0.17200000000E+03 0.  1.
</event>
<event>
 4    1  0.3196149E-002  0.1967111E+03  0.7818608E-02  0.1152544E+00
         -2   -1    0    0    0  501 -0.00000000000E+00  0.00000000000E+00  0.12357425193E+03  0.12357425193E+03  0.00000000000E+00 0.  1.
          2   -1    0    0  502    0  0.00000000000E+00 -0.00000000000E+00 -0.47316407526E+03  0.47316407526E+03  0.00000000000E+00 0. -1.
          6    1    1    2  502    0  0.29300026019E+02  0.90844716275E+02 -0.34831484124E+03  0.40002310261E+03  0.17200000000E+03 0. -1.
         -6    1    1    2    0  501 -0.29300026019E+02 -0.90844716275E+02 -0.12749820938E+01  0.19671522457E+03  0.17200000000E+03 0.  1.
</event>
<event>
 4    1  0.3196149E-002  0.4337691E+03  0.7818608E-02  0.1032676E+00
          2   -1    0    0  502    0  0.00000000000E+00  0.00000000000E+00  0.10109303139E+04  0.10109303139E+04  0.00000000000E+00 0. -1.
         -2   -1    0    0    0  501 -0.00000000000E+00 -0.00000000000E+00 -0.26721659083E+03  0.26721659083E+03  0.00000000000E+00 0.  1.
          6    1    1    2  502    0  0.35513820821E+03  0.18013462148E+03  0.72391710035E+03  0.84392629830E+03  0.17200000000E+03 0. -1.
         -6    1    1    2    0  501 -0.35513820821E+03 -0.18013462148E+03  0.19796622724E+02  0.43422060644E+03  0.17200000000E+03 0.  1.
</event>
<event>
 4    1  0.3196149E-002  0.3520968E+03  0.7818608E-02  0.1061758E+00
          2   -1    0    0  502    0  0.00000000000E+00  0.00000000000E+00  0.10054845790E+04  0.10054845790E+04  0.00000000000E+00 0. -1.
         -2   -1    0    0    0  501 -0.00000000000E+00 -0.00000000000E+00 -0.33959659744E+03  0.33959659744E+03  0.00000000000E+00 0.  1.
          6    1    1    2  502    0  0.19763708635E+03 -0.23521841668E+03  0.86968626111E+03  0.93825706190E+03  0.17200000000E+03 0. -1.
         -6    1    1    2    0  501 -0.19763708635E+03  0.23521841668E+03 -0.20379827952E+03  0.40682411456E+03  0.17200000000E+03 0.  1.
</event>
<event>
 4    1  0.3196149E-002  0.1824064E+03  0.7818608E-02  0.1165494E+00
         -2   -1    0    0    0  501 -0.00000000000E+00  0.00000000000E+00  0.65811923963E+03  0.65811923963E+03  0.00000000000E+00 0.  1.
          2   -1    0    0  502    0  0.00000000000E+00 -0.00000000000E+00 -0.12759078630E+03  0.12759078630E+03  0.00000000000E+00 0. -1.
          6    1    1    2  502    0 -0.52777785640E+02 -0.30043410162E+02 -0.39992413800E+02  0.18673910761E+03  0.17200000000E+03 0. -1.
         -6    1    1    2    0  501  0.52777785640E+02  0.30043410162E+02  0.57052086713E+03  0.59897091831E+03  0.17200000000E+03 0.  1.
</event>
<event>
 4    1  0.3196149E-002  0.4769512E+03  0.7818608E-02  0.1019976E+00
          1   -1    0    0  502    0  0.00000000000E+00  0.00000000000E+00  0.43606935481E+03  0.43606935481E+03  0.00000000000E+00 0. -1.
         -1   -1    0    0    0  501 -0.00000000000E+00 -0.00000000000E+00 -0.64218670162E+03  0.64218670162E+03  0.00000000000E+00 0.  1.
          6    1    1    2  502    0  0.97169013470E+01 -0.44475168412E+03 -0.33661541182E+03  0.58377428358E+03  0.17200000000E+03 0. -1.
         -6    1    1    2    0  501 -0.97169013470E+01  0.44475168412E+03  0.13049806501E+03  0.49448177284E+03  0.17200000000E+03 0.  1.
</event>
<event>
 4    1  0.3196149E-002  0.1806161E+03  0.7818608E-02  0.1167208E+00
         -1   -1    0    0    0  501 -0.00000000000E+00  0.00000000000E+00  0.12717199814E+03  0.12717199814E+03  0.00000000000E+00 0.  1.
          1   -1    0    0  502    0  0.00000000000E+00 -0.00000000000E+00 -0.36881993564E+03  0.36881993564E+03  0.00000000000E+00 0. -1.
          6    1    1    2  502    0 -0.25817285102E+02 -0.48699543299E+02 -0.25766833511E+03  0.31466672631E+03  0.17200000000E+03 0. -1.
         -6    1    1    2    0  501  0.25817285102E+02  0.48699543299E+02  0.16020397604E+02  0.18132520748E+03  0.17200000000E+03 0.  1.
</event>
<event>
 4    1  0.3196149E-002  0.1810057E+03  0.7818608E-02  0.1166833E+00
         -1   -1    0    0    0  501 -0.00000000000E+00  0.00000000000E+00  0.13157522579E+03  0.13157522579E+03  0.00000000000E+00 0.  1.
          1   -1    0    0  502    0  0.00000000000E+00 -0.00000000000E+00 -0.41895271701E+03  0.41895271701E+03  0.00000000000E+00 0. -1.
          6    1    1    2  502    0  0.39163361801E+02  0.40562356698E+02 -0.31900522493E+03  0.36677978028E+03  0.17200000000E+03 0. -1.
         -6    1    1    2    0  501 -0.39163361801E+02 -0.40562356698E+02  0.31627733709E+02  0.18374816252E+03  0.17200000000E+03 0.  1.
</event>
<event>
 4    1  0.3196149E-002  0.2734520E+03  0.7818608E-02  0.1099320E+00
          2   -1    0    0  502    0  0.00000000000E+00  0.00000000000E+00  0.16020453915E+04  0.16020453915E+04  0.00000000000E+00 0. -1.
         -2   -1    0    0    0  501 -0.00000000000E+00 -0.00000000000E+00 -0.86070145125E+02  0.86070145125E+02  0.00000000000E+00 0.  1.
          6    1    1    2  502    0 -0.21236942046E+03  0.95522694255E+01  0.13290260980E+04  0.13568663847E+04  0.17200000000E+03 0. -1.
         -6    1    1    2    0  501  0.21236942046E+03 -0.95522694255E+01  0.18694914833E+03  0.33124915194E+03  0.17200000000E+03 0.  1.
</event>
<event>
 4    1  0.3196149E-002  0.1736323E+03  0.7818608E-02  0.1174112E+00
         -2   -1    0    0    0  501 -0.00000000000E+00  0.00000000000E+00  0.31625327112E+03  0.31625327112E+03  0.00000000000E+00 0.  1.
          2   -1    0    0  502    0  0.00000000000E+00 -0.00000000000E+00 -0.28378381669E+03  0.28378381669E+03  0.00000000000E+00 0. -1.
          6    1    1    2  502    0  0.18202969206E+01 -0.23682253595E+02 -0.22825336325E+03  0.28678870350E+03  0.17200000000E+03 0. -1.
         -6    1    1    2    0  501 -0.18202969206E+01  0.23682253595E+02  0.26072281768E+03  0.31324838431E+03  0.17200000000E+03 0.  1.
</event>
<event>
 4    1  0.3196149E-002  0.4459804E+03  0.7818608E-02  0.1028928E+00
         -2   -1    0    0    0  501 -0.00000000000E+00  0.00000000000E+00  0.12787584380E+03  0.12787584380E+03  0.00000000000E+00 0.  1.
          2   -1    0    0  502    0  0.00000000000E+00 -0.00000000000E+00 -0.15587340290E+04  0.15587340290E+04  0.00000000000E+00 0. -1.
          6    1    1    2  502    0  0.10851289362E+03 -0.39691238226E+03 -0.67644570441E+03  0.81023285437E+03  0.17200000000E+03 0. -1.
         -6    1    1    2    0  501 -0.10851289362E+03  0.39691238226E+03 -0.75441248076E+03  0.87637701842E+03  0.17200000000E+03 0.  1.
</event>
<event>
 4    1  0.3196149E-002  0.1769986E+03  0.7818608E-02  0.1170740E+00
          2   -1    0    0  502    0  0.00000000000E+00  0.00000000000E+00  0.65984201373E+03  0.65984201373E+03  0.00000000000E+00 0. -1.
         -2   -1    0    0    0  501 -0.00000000000E+00 -0.00000000000E+00 -0.68548806354E+02  0.68548806354E+02  0.00000000000E+00 0.  1.
          6    1    1    2  502    0 -0.76938305814E+01 -0.41052466501E+02  0.49756084980E+03  0.52810538654E+03  0.17200000000E+03 0. -1.
         -6    1    1    2    0  501  0.76938305814E+01  0.41052466501E+02  0.93732357576E+02  0.20028543355E+03  0.17200000000E+03 0.  1.
</event>
<event>
 4    1  0.3196149E-002  0.6140564E+03  0.7818608E-02  0.9876665E-01
         -2   -1    0    0    0  501 -0.00000000000E+00  0.00000000000E+00  0.21946316597E+03  0.21946316597E+03  0.00000000000E+00 0.  1.
          2   -1    0    0  502    0  0.00000000000E+00 -0.00000000000E+00 -0.17213129006E+04  0.17213129006E+04  0.00000000000E+00 0. -1.
          6    1    1    2  502    0 -0.12200615234E+03  0.57671110659E+03 -0.70916563556E+03  0.93807307835E+03  0.17200000000E+03 0.  1.
         -6    1    1    2    0  501  0.12200615234E+03 -0.57671110659E+03 -0.79268409912E+03  0.10027029883E+04  0.17200000000E+03 0. -1.
</event>
<event>
 4    1  0.3196149E-002  0.3235695E+03  0.7818608E-02  0.1074018E+00
         -1   -1    0    0    0  501 -0.00000000000E+00  0.00000000000E+00  0.14599239049E+03  0.14599239049E+03  0.00000000000E+00 0.  1.
          1   -1    0    0  502    0  0.00000000000E+00 -0.00000000000E+00 -0.78733523845E+03  0.78733523845E+03  0.00000000000E+00 0. -1.
          6    1    1    2  502    0 -0.15413261355E+03  0.22661941276E+03 -0.46001054548E+03  0.56241170219E+03  0.17200000000E+03 0. -1.
         -6    1    1    2    0  501  0.15413261355E+03 -0.22661941276E+03 -0.18133230248E+03  0.37091592676E+03  0.17200000000E+03 0.  1.
</event>
<event>
 4    1  0.3196149E-002  0.1814091E+03  0.7818608E-02  0.1166446E+00
         -2   -1    0    0    0  501 -0.00000000000E+00  0.00000000000E+00  0.61551046106E+02  0.61551046106E+02  0.00000000000E+00 0.  1.
          2   -1    0    0  502    0  0.00000000000E+00 -0.00000000000E+00 -0.78016027502E+03  0.78016027502E+03  0.00000000000E+00 0. -1.
          6    1    1    2  502    0 -0.41400995565E+02 -0.40140031064E+02 -0.12322322347E+03  0.21930168109E+03  0.17200000000E+03 0.  1.
         -6    1    1    2    0  501  0.41400995565E+02  0.40140031064E+02 -0.59538600545E+03  0.62240964004E+03  0.17200000000E+03 0. -1.
</event>
<event>
 4    1  0.3196149E-002  0.2464714E+03  0.7818608E-02  0.1115555E+00
         -1   -1    0    0    0  501 -0.00000000000E+00  0.00000000000E+00  0.33814289938E+02  0.33814289938E+02  0.00000000000E+00 0.  1.
          1   -1    0    0  502    0  0.00000000000E+00 -0.00000000000E+00 -0.19833000869E+04  0.19833000869E+04  0.00000000000E+00 0. -1.
          6    1    1    2  502    0 -0.17634314512E+03  0.82010695348E+01 -0.12842479013E+04  0.13076852964E+04  0.17200000000E+03 0. -1.
         -6    1    1    2    0  501  0.17634314512E+03 -0.82010695348E+01 -0.66523789563E+03  0.70942908042E+03  0.17200000000E+03 0. -1.
</event>
<event>
 4    1  0.3196149E-002  0.1834707E+03  0.7818608E-02  0.1164486E+00
          2   -1    0    0  502    0  0.00000000000E+00  0.00000000000E+00  0.30725414955E+04  0.30725414955E+04  0.00000000000E+00 0. -1.
         -2   -1    0    0    0  501 -0.00000000000E+00 -0.00000000000E+00 -0.12222884635E+02  0.12222884635E+02  0.00000000000E+00 0.  1.
          6    1    1    2  502    0 -0.47614086889E+02 -0.42548909542E+02  0.20268014881E+04  0.20350886426E+04  0.17200000000E+03 0. -1.
         -6    1    1    2    0  501  0.47614086889E+02  0.42548909542E+02  0.10335171228E+04  0.10496757376E+04  0.17200000000E+03 0.  1.
</event>
<event>
 4    1  0.3196149E-002  0.1796010E+03  0.7818608E-02  0.1168190E+00
          3   -1    0    0  502    0  0.00000000000E+00  0.00000000000E+00  0.17600587930E+03  0.17600587930E+03  0.00000000000E+00 0. -1.
         -3   -1    0    0    0  501 -0.00000000000E+00 -0.00000000000E+00 -0.29450140801E+03  0.29450140801E+03  0.00000000000E+00 0.  1.
          6    1    1    2  502    0 -0.49611575932E+02 -0.14533672611E+02  0.85331852385E+02  0.19884179927E+03  0.17200000000E+03 0. -1.
         -6    1    1    2    0  501  0.49611575932E+02  0.14533672611E+02 -0.20382738110E+03  0.27166548804E+03  0.17200000000E+03 0.  1.
</event>
<event>
 4    1  0.3196149E-002  0.2066249E+03  0.7818608E-02  0.1144267E+00
          1   -1    0    0  502    0  0.00000000000E+00  0.00000000000E+00  0.62123792599E+03  0.62123792599E+03  0.00000000000E+00 0. -1.
         -1   -1    0    0    0  501 -0.00000000000E+00 -0.00000000000E+00 -0.11946273459E+03  0.11946273459E+03  0.00000000000E+00 0.  1.
          6    1    1    2  502    0  0.91721393547E+02 -0.68534992411E+02  0.49224853522E+03  0.53385623499E+03  0.17200000000E+03 0. -1.
         -6    1    1    2    0  501 -0.91721393547E+02  0.68534992411E+02  0.95266561770E+01  0.20684442559E+03  0.17200000000E+03 0.  1.
</event>
<event>
 4    1  0.3196149E-002  0.2104353E+03  0.7818608E-02  0.1141222E+00
         -1   -1    0    0    0  501 -0.00000000000E+00  0.00000000000E+00  0.12269059448E+03  0.12269059448E+03  0.00000000000E+00 0.  1.
          1   -1    0    0  502    0  0.00000000000E+00 -0.00000000000E+00 -0.37719892666E+03  0.37719892666E+03  0.00000000000E+00 0. -1.
          6    1    1    2  502    0  0.11641050888E+03 -0.33876340829E+02 -0.17915878124E+03  0.27637091370E+03  0.17200000000E+03 0. -1.
         -6    1    1    2    0  501 -0.11641050888E+03  0.33876340829E+02 -0.75349550949E+02  0.22351860744E+03  0.17200000000E+03 0.  1.
</event>
<event>
 4    1  0.3196149E-002  0.5676351E+03  0.7818608E-02  0.9974925E-01
          1   -1    0    0  502    0  0.00000000000E+00  0.00000000000E+00  0.82405726506E+03  0.82405726506E+03  0.00000000000E+00 0. -1.
         -1   -1    0    0    0  501 -0.00000000000E+00 -0.00000000000E+00 -0.50601662761E+03  0.50601662761E+03  0.00000000000E+00 0.  1.
          6    1    1    2  502    0  0.40092720839E+03 -0.36315696175E+03  0.47607657630E+03  0.74084985780E+03  0.17200000000E+03 0. -1.
         -6    1    1    2    0  501 -0.40092720839E+03  0.36315696175E+03 -0.15803593885E+03  0.58922403487E+03  0.17200000000E+03 0.  1.
</event>
<event>
 4    1  0.3196149E-002  0.3702414E+03  0.7818608E-02  0.1054601E+00
          1   -1    0    0  502    0  0.00000000000E+00  0.00000000000E+00  0.34819667383E+04  0.34819667383E+04  0.00000000000E+00 0. -1.
         -1   -1    0    0    0  501 -0.00000000000E+00 -0.00000000000E+00 -0.10365632897E+03  0.10365632897E+03  0.00000000000E+00 0.  1.
          6    1    1    2  502    0  0.24884072831E+03 -0.21347827294E+03  0.31010495471E+04  0.31230733220E+04  0.17200000000E+03 0. -1.
         -6    1    1    2    0  501 -0.24884072831E+03  0.21347827294E+03  0.27726086215E+03  0.46254974518E+03  0.17200000000E+03 0.  1.
</event>
<event>
 4    1  0.3196149E-002  0.1735461E+03  0.7818608E-02  0.1174199E+00
          1   -1    0    0  502    0  0.00000000000E+00  0.00000000000E+00  0.48297206950E+02  0.48297206950E+02  0.00000000000E+00 0. -1.
         -1   -1    0    0    0  501 -0.00000000000E+00 -0.00000000000E+00 -0.71257989157E+03  0.71257989157E+03  0.00000000000E+00 0.  1.
          6    1    1    2  502    0  0.15816024421E+02  0.16855845877E+02 -0.46657475019E+03  0.49780544762E+03  0.17200000000E+03 0.  1.
         -6    1    1    2    0  501 -0.15816024421E+02 -0.16855845877E+02 -0.19770793443E+03  0.26307165089E+03  0.17200000000E+03 0. -1.
</event>
<event>
 4    1  0.3196149E-002  0.3545014E+03  0.7818608E-02  0.1060783E+00
         -1   -1    0    0    0  501 -0.00000000000E+00  0.00000000000E+00  0.21074444135E+03  0.21074444135E+03  0.00000000000E+00 0.  1.
          1   -1    0    0  502    0  0.00000000000E+00 -0.00000000000E+00 -0.72671787353E+03  0.72671787353E+03  0.00000000000E+00 0. -1.
          6    1    1    2  502    0  0.27929895283E+03  0.13445933412E+03 -0.45653924689E+03  0.57801323647E+03  0.17200000000E+03 0. -1.
         -6    1    1    2    0  501 -0.27929895283E+03 -0.13445933412E+03 -0.59434185292E+02  0.35944907841E+03  0.17200000000E+03 0.  1.
</event>
<event>
 4    1  0.3196149E-002  0.2299150E+03  0.7818608E-02  0.1126700E+00
          1   -1    0    0  502    0  0.00000000000E+00  0.00000000000E+00  0.46281478856E+03  0.46281478856E+03  0.00000000000E+00 0. -1.
         -1   -1    0    0    0  501 -0.00000000000E+00 -0.00000000000E+00 -0.11433313532E+03  0.11433313532E+03  0.00000000000E+00 0.  1.
          6    1    1    2  502    0 -0.14675987496E+03 -0.41694524338E+02  0.16500760485E+03  0.28299894685E+03  0.17200000000E+03 0.  1.
         -6    1    1    2    0  501  0.14675987496E+03  0.41694524338E+02  0.18347404839E+03  0.29414897703E+03  0.17200000000E+03 0. -1.
</event>
<event>
 4    1  0.3196149E-002  0.2075778E+03  0.7818608E-02  0.1143499E+00
         -2   -1    0    0    0  501 -0.00000000000E+00  0.00000000000E+00  0.74515642787E+02  0.74515642787E+02  0.00000000000E+00 0.  1.
          2   -1    0    0  502    0  0.00000000000E+00 -0.00000000000E+00 -0.59133765008E+03  0.59133765008E+03  0.00000000000E+00 0. -1.
          6    1    1    2  502    0  0.11181375899E+03 -0.31657964812E+02 -0.20887854270E+03  0.29448054101E+03  0.17200000000E+03 0.  1.
         -6    1    1    2    0  501 -0.11181375899E+03  0.31657964812E+02 -0.30794346460E+03  0.37137275186E+03  0.17200000000E+03 0.  1.
</event>
<event>
 4    1  0.3196149E-002  0.2375092E+03  0.7818608E-02  0.1121463E+00
         -1   -1    0    0    0  501 -0.00000000000E+00  0.00000000000E+00  0.43603519251E+02  0.43603519251E+02  0.00000000000E+00 0.  1.
          1   -1    0    0  502    0  0.00000000000E+00 -0.00000000000E+00 -0.14883384659E+04  0.14883384659E+04  0.00000000000E+00 0. -1.
          6    1    1    2  502    0  0.15354579189E+03 -0.57011301771E+02 -0.99935309997E+03  0.10271889880E+04  0.17200000000E+03 0. -1.
         -6    1    1    2    0  501 -0.15354579189E+03  0.57011301771E+02 -0.44538184668E+03  0.50475299711E+03  0.17200000000E+03 0.  1.
</event>
<event>
 4    1  0.3196149E-002  0.2848262E+03  0.7818608E-02  0.1093082E+00
          2   -1    0    0  502    0  0.00000000000E+00  0.00000000000E+00  0.29705088402E+04  0.29705088402E+04  0.00000000000E+00 0. -1.
         -2   -1    0    0    0  501 -0.00000000000E+00 -0.00000000000E+00 -0.27578488869E+02  0.27578488869E+02  0.00000000000E+00 0.  1.
          6    1    1    2  502    0 -0.28588112177E+02  0.22522141862E+03  0.13236841913E+04  0.13539814643E+04  0.17200000000E+03 0. -1.
         -6    1    1    2    0  501  0.28588112177E+02 -0.22522141862E+03  0.16192461601E+04  0.16441058648E+04  0.17200000000E+03 0. -1.
</event>
<event>
 4    1  0.3196149E-002  0.2337304E+03  0.7818608E-02  0.1124041E+00
         -2   -1    0    0    0  501 -0.00000000000E+00  0.00000000000E+00  0.14265917404E+03  0.14265917404E+03  0.00000000000E+00 0.  1.
          2   -1    0    0  502    0  0.00000000000E+00 -0.00000000000E+00 -0.42368157867E+03  0.42368157867E+03  0.00000000000E+00 0. -1.
          6    1    1    2  502    0  0.71001443315E+02 -0.14143798690E+03 -0.22832176652E+03  0.32674261760E+03  0.17200000000E+03 0. -1.
         -6    1    1    2    0  501 -0.71001443315E+02  0.14143798690E+03 -0.52700638101E+02  0.23959813511E+03  0.17200000000E+03 0.  1.
</event>
<event>
 4    1  0.3196149E-002  0.4560979E+03  0.7818608E-02  0.1025919E+00
         -1   -1    0    0    0  501 -0.00000000000E+00  0.00000000000E+00  0.97471810484E+02  0.97471810484E+02  0.00000000000E+00 0.  1.
          1   -1    0    0  502    0  0.00000000000E+00 -0.00000000000E+00 -0.25280676296E+04  0.25280676296E+04  0.00000000000E+00 0. -1.
          6    1    1    2  502    0  0.70883671773E+01 -0.42236369158E+03 -0.17334577183E+04  0.17924566924E+04  0.17200000000E+03 0. -1.
         -6    1    1    2    0  501 -0.70883671773E+01  0.42236369158E+03 -0.69713810084E+03  0.83308274772E+03  0.17200000000E+03 0.  1.
</event>
<event>
 4    1  0.3196149E-002  0.1743015E+03  0.7818608E-02  0.1173435E+00
         -1   -1    0    0    0  501 -0.00000000000E+00  0.00000000000E+00  0.62357252842E+02  0.62357252842E+02  0.00000000000E+00 0.  1.
          1   -1    0    0  502    0  0.00000000000E+00 -0.00000000000E+00 -0.54005757218E+03  0.54005757218E+03  0.00000000000E+00 0. -1.
          6    1    1    2  502    0 -0.25741168824E+02  0.11593977641E+02 -0.33307412540E+03  0.37592472797E+03  0.17200000000E+03 0. -1.
         -6    1    1    2    0  501  0.25741168824E+02 -0.11593977641E+02 -0.14462619395E+03  0.22649009706E+03  0.17200000000E+03 0.  1.
</event>
<event>
 4    1  0.3196149E-002  0.2554270E+03  0.7818608E-02  0.1109922E+00
          1   -1    0    0  502    0  0.00000000000E+00  0.00000000000E+00  0.92887948969E+03  0.92887948969E+03  0.00000000000E+00 0. -1.
         -1   -1    0    0    0  501 -0.00000000000E+00 -0.00000000000E+00 -0.71861164948E+02  0.71861164948E+02  0.00000000000E+00 0.  1.
          6    1    1    2  502    0  0.18748744605E+03  0.22526089893E+02  0.35331601216E+03  0.43597611357E+03  0.17200000000E+03 0.  1.
         -6    1    1    2    0  501 -0.18748744605E+03 -0.22526089893E+02  0.50370231258E+03  0.56476454107E+03  0.17200000000E+03 0. -1.
</event>
<event>
 4    1  0.3196149E-002  0.1809995E+03  0.7818608E-02  0.1166839E+00
          2   -1    0    0  502    0  0.00000000000E+00  0.00000000000E+00  0.15288715146E+03  0.15288715146E+03  0.00000000000E+00 0. -1.
         -2   -1    0    0    0  501 -0.00000000000E+00 -0.00000000000E+00 -0.21432919689E+03  0.21432919689E+03  0.00000000000E+00 0.  1.
          6    1    1    2  502    0 -0.55924918940E+02 -0.70148986659E+01 -0.27966492094E+02  0.18314729057E+03  0.17200000000E+03 0. -1.
         -6    1    1    2    0  501  0.55924918940E+02  0.70148986659E+01 -0.33475553336E+02  0.18406905778E+03  0.17200000000E+03 0.  1.
</event>
<event>
 4    1  0.3196149E-002  0.3326033E+03  0.7818608E-02  0.1069991E+00
         -1   -1    0    0    0  501 -0.00000000000E+00  0.00000000000E+00  0.12587540512E+03  0.12587540512E+03  0.00000000000E+00 0.  1.
          1   -1    0    0  502    0  0.00000000000E+00 -0.00000000000E+00 -0.88091745415E+03  0.88091745415E+03  0.00000000000E+00 0. -1.
          6    1    1    2  502    0  0.82524124255E+01 -0.28455732263E+03 -0.35310451810E+03  0.48508532535E+03  0.17200000000E+03 0. -1.
         -6    1    1    2    0  501 -0.82524124255E+01  0.28455732263E+03 -0.40193753094E+03  0.52170753392E+03  0.17200000000E+03 0.  1.
</event>
<event>
 4    1  0.3196149E-002  0.2220541E+03  0.7818608E-02  0.1132361E+00
          2   -1    0    0  502    0  0.00000000000E+00  0.00000000000E+00  0.67302482336E+03  0.67302482336E+03  0.00000000000E+00 0. -1.
         -2   -1    0    0    0  501 -0.00000000000E+00 -0.00000000000E+00 -0.94612920705E+02  0.94612920705E+02  0.00000000000E+00 0.  1.
          6    1    1    2  502    0  0.35060678927E+02 -0.13599547064E+03  0.47153093634E+03  0.52120000304E+03  0.17200000000E+03 0. -1.
         -6    1    1    2    0  501 -0.35060678927E+02  0.13599547064E+03  0.10688096632E+03  0.24643774103E+03  0.17200000000E+03 0.  1.
</event>
<event>
 4    1  0.3196149E-002  0.2147396E+03  0.7818608E-02  0.1137867E+00
         -2   -1    0    0    0  501 -0.00000000000E+00  0.00000000000E+00  0.52865955830E+03  0.52865955830E+03  0.00000000000E+00 0.  1.
          2   -1    0    0  502    0  0.00000000000E+00 -0.00000000000E+00 -0.14302740717E+03  0.14302740717E+03  0.00000000000E+00 0. -1.
          6    1    1    2  502    0 -0.12854813035E+03 -0.21142602837E+01 -0.16956229452E+02  0.21540799807E+03  0.17200000000E+03 0. -1.
         -6    1    1    2    0  501  0.12854813035E+03  0.21142602837E+01  0.40258838058E+03  0.45627896740E+03  0.17200000000E+03 0.  1.
</event>
<event>
 4    1  0.3196149E-002  0.3331827E+03  0.7818608E-02  0.1069737E+00
         -1   -1    0    0    0  501 -0.00000000000E+00  0.00000000000E+00  0.11400499685E+04  0.11400499685E+04  0.00000000000E+00 0.  1.
          1   -1    0    0  502    0  0.00000000000E+00 -0.00000000000E+00 -0.12606918531E+03  0.12606918531E+03  0.00000000000E+00 0. -1.
          6    1    1    2  502    0  0.79771478243E+02  0.27397668622E+03  0.20496182098E+03  0.39117778745E+03  0.17200000000E+03 0. -1.
         -6    1    1    2    0  501 -0.79771478243E+02 -0.27397668622E+03  0.80901896218E+03  0.87494136632E+03  0.17200000000E+03 0.  1.
</event>
<event>
 4    1  0.3196149E-002  0.2656217E+03  0.7818608E-02  0.1103812E+00
          2   -1    0    0  502    0  0.00000000000E+00  0.00000000000E+00  0.89599402608E+03  0.89599402608E+03  0.00000000000E+00 0. -1.
         -2   -1    0    0    0  501 -0.00000000000E+00 -0.00000000000E+00 -0.79223927688E+02  0.79223927688E+02  0.00000000000E+00 0.  1.
          6    1    1    2  502    0  0.66068552039E+02 -0.19132645603E+03  0.37046479982E+03  0.45584979352E+03  0.17200000000E+03 0. -1.
         -6    1    1    2    0  501 -0.66068552039E+02  0.19132645603E+03  0.44630529858E+03  0.51936816025E+03  0.17200000000E+03 0. -1.
</event>
<event>
 4    1  0.3196149E-002  0.5599853E+03  0.7818608E-02  0.9992088E-01
         -2   -1    0    0    0  501 -0.00000000000E+00  0.00000000000E+00  0.18245883979E+03  0.18245883979E+03  0.00000000000E+00 0.  1.
          2   -1    0    0  502    0  0.00000000000E+00 -0.00000000000E+00 -0.18534108526E+04  0.18534108526E+04  0.00000000000E+00 0. -1.
          6    1    1    2  502    0  0.53291302771E+03 -0.17916966712E+01 -0.11099558943E+04  0.12432158271E+04  0.17200000000E+03 0. -1.
         -6    1    1    2    0  501 -0.53291302771E+03  0.17916966712E+01 -0.56099611847E+03  0.79265386533E+03  0.17200000000E+03 0.  1.
</event>
<event>
 4    1  0.3196149E-002  0.1770942E+03  0.7818608E-02  0.1170645E+00
          2   -1    0    0  502    0  0.00000000000E+00  0.00000000000E+00  0.21003204021E+04  0.21003204021E+04  0.00000000000E+00 0. -1.
         -2   -1    0    0    0  501 -0.00000000000E+00 -0.00000000000E+00 -0.15396607906E+02  0.15396607906E+02  0.00000000000E+00 0.  1.
          6    1    1    2  502    0  0.59327259946E+01 -0.41751290206E+02  0.12261889293E+04  0.12389114810E+04  0.17200000000E+03 0. -1.
         -6    1    1    2    0  501 -0.59327259946E+01  0.41751290206E+02  0.85873486490E+03  0.87680552899E+03  0.17200000000E+03 0. -1.
</event>
<event>
 4    1  0.3196149E-002  0.3099000E+03  0.7818608E-02  0.1080394E+00
          1   -1    0    0  502    0  0.00000000000E+00  0.00000000000E+00  0.12748761225E+03  0.12748761225E+03  0.00000000000E+00 0. -1.
         -1   -1    0    0    0  501 -0.00000000000E+00 -0.00000000000E+00 -0.81607618040E+03  0.81607618040E+03  0.00000000000E+00 0.  1.
          6    1    1    2  502    0 -0.16889747904E+03  0.19475026298E+03 -0.21345751499E+03  0.37630059004E+03  0.17200000000E+03 0. -1.
         -6    1    1    2    0  501  0.16889747904E+03 -0.19475026298E+03 -0.47513105316E+03  0.56726320261E+03  0.17200000000E+03 0.  1.
</event>
<event>
 4    1  0.3196149E-002  0.3061945E+03  0.7818608E-02  0.1082184E+00
          2   -1    0    0  502    0  0.00000000000E+00  0.00000000000E+00  0.14408439636E+04  0.14408439636E+04  0.00000000000E+00 0. -1.
         -2   -1    0    0    0  501 -0.00000000000E+00 -0.00000000000E+00 -0.69364540896E+02  0.69364540896E+02  0.00000000000E+00 0.  1.
          6    1    1    2  502    0  0.19141141707E+03  0.16592994487E+03  0.49784309003E+03  0.58446797986E+03  0.17200000000E+03 0.  1.
         -6    1    1    2    0  501 -0.19141141707E+03 -0.16592994487E+03  0.87363633272E+03  0.92574052468E+03  0.17200000000E+03 0. -1.
</event>
<event>
 4    1  0.3196149E-002  0.2634327E+03  0.7818608E-02  0.1105098E+00
          1   -1    0    0  502    0  0.00000000000E+00  0.00000000000E+00  0.20936075304E+03  0.20936075304E+03  0.00000000000E+00 0. -1.
         -1   -1    0    0    0  501 -0.00000000000E+00 -0.00000000000E+00 -0.37950720818E+03  0.37950720818E+03  0.00000000000E+00 0.  1.
          6    1    1    2  502    0  0.10964521177E+03 -0.16670546896E+03  0.19679970682E+02  0.26416677893E+03  0.17200000000E+03 0. -1.
         -6    1    1    2    0  501 -0.10964521177E+03  0.16670546896E+03 -0.18982642581E+03  0.32470118229E+03  0.17200000000E+03 0.  1.
</event>
<event>
 4    1  0.3196149E-002  0.2191915E+03  0.7818608E-02  0.1134487E+00
          1   -1    0    0  502    0  0.00000000000E+00  0.00000000000E+00  0.78089981405E+02  0.78089981405E+02  0.00000000000E+00 0. -1.
         -1   -1    0    0    0  501 -0.00000000000E+00 -0.00000000000E+00 -0.10124085946E+04  0.10124085946E+04  0.00000000000E+00 0.  1.
          6    1    1    2  502    0 -0.79601518337E+02 -0.11011137559E+03 -0.80866566025E+03  0.83784549102E+03  0.17200000000E+03 0.  1.
         -6    1    1    2    0  501  0.79601518337E+02  0.11011137559E+03 -0.12565295290E+03  0.25265308494E+03  0.17200000000E+03 0. -1.
</event>
<event>
 4    1  0.3196149E-002  0.1888426E+03  0.7818608E-02  0.1159509E+00
         -2   -1    0    0    0  501 -0.00000000000E+00  0.00000000000E+00  0.27631744214E+02  0.27631744214E+02  0.00000000000E+00 0.  1.
          2   -1    0    0  502    0  0.00000000000E+00 -0.00000000000E+00 -0.12907578255E+04  0.12907578255E+04  0.00000000000E+00 0. -1.
          6    1    1    2  502    0  0.45319918200E+02 -0.63432004119E+02 -0.62426135378E+03  0.65219916586E+03  0.17200000000E+03 0.  1.
         -6    1    1    2    0  501 -0.45319918200E+02  0.63432004119E+02 -0.63886472755E+03  0.66619040389E+03  0.17200000000E+03 0. -1.
</event>
<event>
 4    1  0.3196149E-002  0.1738306E+03  0.7818608E-02  0.1173911E+00
         -2   -1    0    0    0  501 -0.00000000000E+00  0.00000000000E+00  0.14486754990E+03  0.14486754990E+03  0.00000000000E+00 0.  1.
          2   -1    0    0  502    0  0.00000000000E+00 -0.00000000000E+00 -0.20885859744E+03  0.20885859744E+03  0.00000000000E+00 0. -1.
          6    1    1    2  502    0 -0.16111066250E+02 -0.19326624693E+02 -0.38405926400E+02  0.17802275152E+03  0.17200000000E+03 0.  1.
         -6    1    1    2    0  501  0.16111066250E+02  0.19326624693E+02 -0.25585121131E+02  0.17570339582E+03  0.17200000000E+03 0. -1.
</event>
<event>
 4    1  0.3196149E-002  0.2135264E+03  0.7818608E-02  0.1138803E+00
          2   -1    0    0  502    0  0.00000000000E+00  0.00000000000E+00  0.32379462224E+04  0.32379462224E+04  0.00000000000E+00 0. -1.
         -2   -1    0    0    0  501 -0.00000000000E+00 -0.00000000000E+00 -0.42999188697E+02  0.42999188697E+02  0.00000000000E+00 0.  1.
          6    1    1    2  502    0  0.74337722538E+02 -0.10238870668E+03  0.29427897028E+04  0.29505261868E+04  0.17200000000E+03 0. -1.
         -6    1    1    2    0  501 -0.74337722538E+02  0.10238870668E+03  0.25215733096E+03  0.33041922432E+03  0.17200000000E+03 0.  1.
</event>
<event>
 4    1  0.3196149E-002  0.1985226E+03  0.7818608E-02  0.1150992E+00
          2   -1    0    0  502    0  0.00000000000E+00  0.00000000000E+00  0.97379048644E+02  0.97379048644E+02  0.00000000000E+00 0. -1.
         -2   -1    0    0    0  501 -0.00000000000E+00 -0.00000000000E+00 -0.52479175241E+03  0.52479175241E+03  0.00000000000E+00 0.  1.
          6    1    1    2  502    0  0.18651989181E+02 -0.97361840304E+02 -0.36250774528E+03  0.41330750058E+03  0.17200000000E+03 0.  1.
         -6    1    1    2    0  501 -0.18651989181E+02  0.97361840304E+02 -0.64904958481E+02  0.20886330047E+03  0.17200000000E+03 0. -1.
</event>
<event>
 4    1  0.3196149E-002  0.2400832E+03  0.7818608E-02  0.1119737E+00
         -2   -1    0    0    0  501 -0.00000000000E+00  0.00000000000E+00  0.12628568839E+03  0.12628568839E+03  0.00000000000E+00 0.  1.
          2   -1    0    0  502    0  0.00000000000E+00 -0.00000000000E+00 -0.54073837406E+03  0.54073837406E+03  0.00000000000E+00 0. -1.
          6    1    1    2  502    0  0.14969362629E+03  0.75151484531E+02 -0.75532184615E+02  0.25168440216E+03  0.17200000000E+03 0.  1.
         -6    1    1    2    0  501 -0.14969362629E+03 -0.75151484531E+02 -0.33892050105E+03  0.41533966029E+03  0.17200000000E+03 0. -1.
</event>
<event>
 4    1  0.3196149E-002  0.1889759E+03  0.7818608E-02  0.1159388E+00
         -2   -1    0    0    0  501 -0.00000000000E+00  0.00000000000E+00  0.22457984850E+02  0.22457984850E+02  0.00000000000E+00 0.  1.
          2   -1    0    0  502    0  0.00000000000E+00 -0.00000000000E+00 -0.20469523379E+04  0.20469523379E+04  0.00000000000E+00 0. -1.
          6    1    1    2  502    0 -0.71157118211E+02  0.32627704031E+02 -0.15010342997E+04  0.15128832973E+04  0.17200000000E+03 0. -1.
         -6    1    1    2    0  501  0.71157118211E+02 -0.32627704031E+02 -0.52346005336E+03  0.55652702541E+03  0.17200000000E+03 0.  1.
</event>
<event>
 4    1  0.3196149E-002  0.2897557E+03  0.7818608E-02  0.1090477E+00
          2   -1    0    0  502    0  0.00000000000E+00  0.00000000000E+00  0.17241154729E+03  0.17241154729E+03  0.00000000000E+00 0. -1.
         -2   -1    0    0    0  501 -0.00000000000E+00 -0.00000000000E+00 -0.48854449165E+03  0.48854449165E+03  0.00000000000E+00 0.  1.
          6    1    1    2  502    0 -0.78914868256E+02 -0.21942377631E+03 -0.17685878992E+03  0.33946631882E+03  0.17200000000E+03 0.  1.
         -6    1    1    2    0  501  0.78914868256E+02  0.21942377631E+03 -0.13927415445E+03  0.32148972012E+03  0.17200000000E+03 0. -1.
</event>
<event>
 4    1  0.3196149E-002  0.2269693E+03  0.7818608E-02  0.1128791E+00
          2   -1    0    0  502    0  0.00000000000E+00  0.00000000000E+00  0.19854987786E+03  0.19854987786E+03  0.00000000000E+00 0. -1.
         -2   -1    0    0    0  501 -0.00000000000E+00 -0.00000000000E+00 -0.26584690639E+03  0.26584690639E+03  0.00000000000E+00 0.  1.
          6    1    1    2  502    0 -0.38325936299E+02 -0.14304603645E+03  0.23520600758E+01  0.22698144885E+03  0.17200000000E+03 0. -1.
         -6    1    1    2    0  501  0.38325936299E+02  0.14304603645E+03 -0.69649088612E+02  0.23741533539E+03  0.17200000000E+03 0. -1.
</event>
<event>
 4    1  0.3196149E-002  0.2355962E+03  0.7818608E-02  0.1122762E+00
         -2   -1    0    0    0  501 -0.00000000000E+00  0.00000000000E+00  0.80700491061E+02  0.80700491061E+02  0.00000000000E+00 0.  1.
          2   -1    0    0  502    0  0.00000000000E+00 -0.00000000000E+00 -0.12828931902E+04  0.12828931902E+04  0.00000000000E+00 0. -1.
          6    1    1    2  502    0 -0.96958847390E+02  0.12853225768E+03 -0.10654547460E+04  0.10911917224E+04  0.17200000000E+03 0. -1.
         -6    1    1    2    0  501  0.96958847390E+02 -0.12853225768E+03 -0.13673795318E+03  0.27240195886E+03  0.17200000000E+03 0.  1.
</event>
<event>
 4    1  0.3196149E-002  0.2081884E+03  0.7818608E-02  0.1143009E+00
          1   -1    0    0  502    0  0.00000000000E+00  0.00000000000E+00  0.16232903468E+03  0.16232903468E+03  0.00000000000E+00 0. -1.
         -1   -1    0    0    0  501 -0.00000000000E+00 -0.00000000000E+00 -0.56020107513E+03  0.56020107513E+03  0.00000000000E+00 0.  1.
          6    1    1    2  502    0  0.54463410980E+02 -0.10388529025E+03  0.62421011765E+02  0.21734488578E+03  0.17200000000E+03 0. -1.
         -6    1    1    2    0  501 -0.54463410980E+02  0.10388529025E+03 -0.46029305221E+03  0.50518522403E+03  0.17200000000E+03 0.  1.
</event>
<event>
 4    1  0.3196149E-002  0.1795556E+03  0.7818608E-02  0.1168234E+00
         -2   -1    0    0    0  501 -0.00000000000E+00  0.00000000000E+00  0.74034273976E+02  0.74034273976E+02  0.00000000000E+00 0.  1.
          2   -1    0    0  502    0  0.00000000000E+00 -0.00000000000E+00 -0.49390646856E+03  0.49390646856E+03  0.00000000000E+00 0. -1.
          6    1    1    2  502    0  0.30177131897E+02  0.41779757383E+02 -0.11226468913E+03  0.21176299923E+03  0.17200000000E+03 0.  1.
         -6    1    1    2    0  501 -0.30177131897E+02 -0.41779757383E+02 -0.30760750546E+03  0.35617774331E+03  0.17200000000E+03 0. -1.
</event>
<event>
 4    1  0.3196149E-002  0.3366507E+03  0.7818608E-02  0.1068231E+00
         -1   -1    0    0    0  501 -0.00000000000E+00  0.00000000000E+00  0.49565735743E+03  0.49565735743E+03  0.00000000000E+00 0.  1.
          1   -1    0    0  502    0  0.00000000000E+00 -0.00000000000E+00 -0.30410877871E+03  0.30410877871E+03  0.00000000000E+00 0. -1.
          6    1    1    2  502    0  0.76766713464E+02 -0.27902785589E+03 -0.10341410446E+03  0.35217630479E+03  0.17200000000E+03 0. -1.
         -6    1    1    2    0  501 -0.76766713464E+02  0.27902785589E+03  0.29496268318E+03  0.44758983135E+03  0.17200000000E+03 0.  1.
</event>
<event>
 4    1  0.3196149E-002  0.1771977E+03  0.7818608E-02  0.1170543E+00
          1   -1    0    0  502    0  0.00000000000E+00  0.00000000000E+00  0.14554690050E+04  0.14554690050E+04  0.00000000000E+00 0. -1.
         -1   -1    0    0    0  501 -0.00000000000E+00 -0.00000000000E+00 -0.36545935658E+02  0.36545935658E+02  0.00000000000E+00 0.  1.
          6    1    1    2  502    0  0.25268707215E+02 -0.34300157988E+02  0.11869637201E+04  0.12001174448E+04  0.17200000000E+03 0. -1.
         -6    1    1    2    0  501 -0.25268707215E+02  0.34300157988E+02  0.23195934920E+03  0.29189749585E+03  0.17200000000E+03 0.  1.
</event>
<event>
 4    1  0.3196149E-002  0.2856941E+03  0.7818608E-02  0.1092619E+00
         -2   -1    0    0    0  501 -0.00000000000E+00  0.00000000000E+00  0.14631625331E+03  0.14631625331E+03  0.00000000000E+00 0.  1.
          2   -1    0    0  502    0  0.00000000000E+00 -0.00000000000E+00 -0.79789720317E+03  0.79789720317E+03  0.00000000000E+00 0. -1.
          6    1    1    2  502    0 -0.53943965516E+02  0.22164649993E+03 -0.58474511434E+03  0.65080563235E+03  0.17200000000E+03 0. -1.
         -6    1    1    2    0  501  0.53943965516E+02 -0.22164649993E+03 -0.66835835516E+02  0.29340782413E+03  0.17200000000E+03 0.  1.
</event>
<event>
 4    1  0.3196149E-002  0.1822515E+03  0.7818608E-02  0.1165642E+00
         -2   -1    0    0    0  501 -0.00000000000E+00  0.00000000000E+00  0.14531820298E+02  0.14531820298E+02  0.00000000000E+00 0.  1.
          2   -1    0    0  502    0  0.00000000000E+00 -0.00000000000E+00 -0.27675348572E+04  0.27675348572E+04  0.00000000000E+00 0. -1.
          6    1    1    2  502    0  0.27381646651E+02 -0.53682908164E+02 -0.19569090503E+04  0.19653774804E+04  0.17200000000E+03 0. -1.
         -6    1    1    2    0  501 -0.27381646651E+02  0.53682908164E+02 -0.79609398662E+03  0.81668919715E+03  0.17200000000E+03 0.  1.
</event>
<event>
 4    1  0.3196149E-002  0.2738115E+03  0.7818608E-02  0.1099118E+00
          2   -1    0    0  502    0  0.00000000000E+00  0.00000000000E+00  0.47153000354E+03  0.47153000354E+03  0.00000000000E+00 0. -1.
         -2   -1    0    0    0  501 -0.00000000000E+00 -0.00000000000E+00 -0.15903465434E+03  0.15903465434E+03  0.00000000000E+00 0.  1.
          6    1    1    2  502    0 -0.21298147399E+03  0.52587555055E+01  0.16097350140E+03  0.31762435506E+03  0.17200000000E+03 0. -1.
         -6    1    1    2    0  501  0.21298147399E+03 -0.52587555055E+01  0.15152184780E+03  0.31294030283E+03  0.17200000000E+03 0.  1.
</event>
<event>
 4    1  0.3196149E-002  0.2632056E+03  0.7818608E-02  0.1105232E+00
         -2   -1    0    0    0  501 -0.00000000000E+00  0.00000000000E+00  0.15647349102E+03  0.15647349102E+03  0.00000000000E+00 0.  1.
          2   -1    0    0  502    0  0.00000000000E+00 -0.00000000000E+00 -0.44757016107E+03  0.44757016107E+03  0.00000000000E+00 0. -1.
          6    1    1    2  502    0  0.13623312310E+03  0.14537449634E+03 -0.17692089061E+03  0.31714067786E+03  0.17200000000E+03 0. -1.
         -6    1    1    2    0  501 -0.13623312310E+03 -0.14537449634E+03 -0.11417577943E+03  0.28690297424E+03  0.17200000000E+03 0.  1.
</event>
<event>
 4    1  0.3196149E-002  0.4982172E+03  0.7818608E-02  0.1014245E+00
          2   -1    0    0  502    0  0.00000000000E+00  0.00000000000E+00  0.17430063747E+04  0.17430063747E+04  0.00000000000E+00 0. -1.
         -2   -1    0    0    0  501 -0.00000000000E+00 -0.00000000000E+00 -0.15571763461E+03  0.15571763461E+03  0.00000000000E+00 0.  1.
          6    1    1    2  502    0 -0.45222363045E+03 -0.11887034188E+03  0.51610518243E+03  0.71734575307E+03  0.17200000000E+03 0. -1.
         -6    1    1    2    0  501  0.45222363045E+03  0.11887034188E+03  0.10711835576E+04  0.11813782562E+04  0.17200000000E+03 0.  1.
</event>
<event>
 4    1  0.3196149E-002  0.4157025E+03  0.7818608E-02  0.1038474E+00
          2   -1    0    0  502    0  0.00000000000E+00  0.00000000000E+00  0.49315263707E+03  0.49315263707E+03  0.00000000000E+00 0. -1.
         -2   -1    0    0    0  501 -0.00000000000E+00 -0.00000000000E+00 -0.88750255922E+03  0.88750255922E+03  0.00000000000E+00 0.  1.
          6    1    1    2  502    0 -0.30970183443E+02  0.37718083824E+03  0.33984768712E+03  0.53694039468E+03  0.17200000000E+03 0. -1.
         -6    1    1    2    0  501  0.30970183443E+02 -0.37718083824E+03 -0.73419760927E+03  0.84371480161E+03  0.17200000000E+03 0.  1.
</event>
<event>
 4    1  0.3196149E-002  0.1836181E+03  0.7818608E-02  0.1164347E+00
          2   -1    0    0  502    0  0.00000000000E+00  0.00000000000E+00  0.16022117190E+03  0.16022117190E+03  0.00000000000E+00 0. -1.
         -2   -1    0    0    0  501 -0.00000000000E+00 -0.00000000000E+00 -0.41240728722E+03  0.41240728722E+03  0.00000000000E+00 0.  1.
          6    1    1    2  502    0 -0.13320486996E+02  0.62882235114E+02  0.74275340020E+02  0.19807179759E+03  0.17200000000E+03 0. -1.
         -6    1    1    2    0  501  0.13320486996E+02 -0.62882235114E+02 -0.32646145534E+03  0.37455666152E+03  0.17200000000E+03 0.  1.
</event>
<event>
 4    1  0.3196149E-002  0.1996281E+03  0.7818608E-02  0.1150053E+00
          2   -1    0    0  502    0  0.00000000000E+00  0.00000000000E+00  0.29952394973E+03  0.29952394973E+03  0.00000000000E+00 0. -1.
         -2   -1    0    0    0  501 -0.00000000000E+00 -0.00000000000E+00 -0.14690471804E+03  0.14690471804E+03  0.00000000000E+00 0.  1.
          6    1    1    2  502    0 -0.73638963859E+02 -0.69603754233E+02  0.14486124883E+03  0.24664987536E+03  0.17200000000E+03 0. -1.
         -6    1    1    2    0  501  0.73638963859E+02  0.69603754233E+02  0.77579828561E+01  0.19977879242E+03  0.17200000000E+03 0.  1.
</event>
<event>
 4    1  0.3196149E-002  0.1996067E+03  0.7818608E-02  0.1150071E+00
          4   -1    0    0  502    0  0.00000000000E+00  0.00000000000E+00  0.15145113049E+03  0.15145113049E+03  0.00000000000E+00 0. -1.
         -4   -1    0    0    0  501 -0.00000000000E+00 -0.00000000000E+00 -0.66037579214E+03  0.66037579214E+03  0.00000000000E+00 0.  1.
          6    1    1    2  502    0 -0.10128512989E+03 -0.41517664215E+00  0.60383655362E+02  0.20854024970E+03  0.17200000000E+03 0. -1.
         -6    1    1    2    0  501  0.10128512989E+03  0.41517664215E+00 -0.56930831701E+03  0.60328667292E+03  0.17200000000E+03 0.  1.
</event>
<event>
 4    1  0.3196149E-002  0.4299316E+03  0.7818608E-02  0.1033882E+00
          1   -1    0    0  502    0  0.00000000000E+00  0.00000000000E+00  0.58723159414E+03  0.58723159414E+03  0.00000000000E+00 0. -1.
         -1   -1    0    0    0  501 -0.00000000000E+00 -0.00000000000E+00 -0.32080548155E+03  0.32080548155E+03  0.00000000000E+00 0.  1.
          6    1    1    2  502    0  0.38891666896E+03 -0.63253742226E+02  0.19550206460E+03  0.47229468403E+03  0.17200000000E+03 0. -1.
         -6    1    1    2    0  501 -0.38891666896E+03  0.63253742226E+02  0.70924047996E+02  0.43574239165E+03  0.17200000000E+03 0.  1.
</event>
<event>
 4    1  0.3196149E-002  0.2008959E+03  0.7818608E-02  0.1148985E+00
          2   -1    0    0  502    0  0.00000000000E+00  0.00000000000E+00  0.11373778302E+04  0.11373778302E+04  0.00000000000E+00 0. -1.
         -2   -1    0    0    0  501 -0.00000000000E+00 -0.00000000000E+00 -0.58120767827E+02  0.58120767827E+02  0.00000000000E+00 0.  1.
          6    1    1    2  502    0  0.10313883738E+03 -0.11728354489E+02  0.91266967983E+03  0.93451865608E+03  0.17200000000E+03 0. -1.
         -6    1    1    2    0  501 -0.10313883738E+03  0.11728354489E+02  0.16658738253E+03  0.26097994194E+03  0.17200000000E+03 0.  1.
</event>
<event>
 4    1  0.3196149E-002  0.2190457E+03  0.7818608E-02  0.1134597E+00
          2   -1    0    0  502    0  0.00000000000E+00  0.00000000000E+00  0.23696828106E+03  0.23696828106E+03  0.00000000000E+00 0. -1.
         -2   -1    0    0    0  501 -0.00000000000E+00 -0.00000000000E+00 -0.21517463183E+03  0.21517463183E+03  0.00000000000E+00 0.  1.
          6    1    1    2  502    0 -0.66093875139E+02 -0.11844243634E+03  0.65810918188E+02  0.22871835958E+03  0.17200000000E+03 0. -1.
         -6    1    1    2    0  501  0.66093875139E+02  0.11844243634E+03 -0.44017268957E+02  0.22342455331E+03  0.17200000000E+03 0.  1.
</event>
<event>
 4    1  0.3196149E-002  0.1918101E+03  0.7818608E-02  0.1156839E+00
          2   -1    0    0  502    0  0.00000000000E+00  0.00000000000E+00  0.48698469120E+02  0.48698469120E+02  0.00000000000E+00 0. -1.
         -2   -1    0    0    0  501 -0.00000000000E+00 -0.00000000000E+00 -0.77287650165E+03  0.77287650165E+03  0.00000000000E+00 0.  1.
          6    1    1    2  502    0  0.68636574655E+02 -0.49961522564E+02 -0.30047393035E+03  0.35647680982E+03  0.17200000000E+03 0. -1.
         -6    1    1    2    0  501 -0.68636574655E+02  0.49961522564E+02 -0.42370410217E+03  0.46509816095E+03  0.17200000000E+03 0.  1.
</event>
<event>
 4    1  0.3196149E-002  0.3060147E+03  0.7818608E-02  0.1082272E+00
         -2   -1    0    0    0  501 -0.00000000000E+00  0.00000000000E+00  0.15772232807E+03  0.15772232807E+03  0.00000000000E+00 0.  1.
          2   -1    0    0  502    0  0.00000000000E+00 -0.00000000000E+00 -0.29539560659E+04  0.29539560659E+04  0.00000000000E+00 0. -1.
          6    1    1    2  502    0 -0.96518731290E+02  0.23397683776E+03 -0.27888351840E+04  0.28055742210E+04  0.17200000000E+03 0. -1.
         -6    1    1    2    0  501  0.96518731290E+02 -0.23397683776E+03 -0.73985538123E+01  0.30610417295E+03  0.17200000000E+03 0.  1.
</event>
<event>
 4    1  0.3196149E-002  0.3127504E+03  0.7818608E-02  0.1079035E+00
         -2   -1    0    0    0  501 -0.00000000000E+00  0.00000000000E+00  0.19620786063E+03  0.19620786063E+03  0.00000000000E+00 0.  1.
          2   -1    0    0  502    0  0.00000000000E+00 -0.00000000000E+00 -0.15167601613E+04  0.15167601613E+04  0.00000000000E+00 0. -1.
          6    1    1    2  502    0  0.23207456592E+03 -0.11987570653E+03 -0.13620331182E+04  0.13974788028E+04  0.17200000000E+03 0. -1.
         -6    1    1    2    0  501 -0.23207456592E+03  0.11987570653E+03  0.41480817547E+02  0.31548921913E+03  0.17200000000E+03 0.  1.
</event>
<event>
 4    1  0.3196149E-002  0.1778133E+03  0.7818608E-02  0.1169936E+00
         -3   -1    0    0    0  501 -0.00000000000E+00  0.00000000000E+00  0.43413297127E+02  0.43413297127E+02  0.00000000000E+00 0.  1.
          3   -1    0    0  502    0  0.00000000000E+00 -0.00000000000E+00 -0.73792833328E+03  0.73792833328E+03  0.00000000000E+00 0. -1.
          6    1    1    2  502    0  0.79577586592E+01  0.44387437836E+02 -0.30261458313E+03  0.35098882672E+03  0.17200000000E+03 0. -1.
         -6    1    1    2    0  501 -0.79577586592E+01 -0.44387437836E+02 -0.39190045302E+03  0.43035280368E+03  0.17200000000E+03 0. -1.
</event>
<event>
 4    1  0.3196149E-002  0.2761618E+03  0.7818608E-02  0.1097804E+00
          2   -1    0    0  502    0  0.00000000000E+00  0.00000000000E+00  0.15694872998E+04  0.15694872998E+04  0.00000000000E+00 0. -1.
         -2   -1    0    0    0  501 -0.00000000000E+00 -0.00000000000E+00 -0.50259167001E+02  0.50259167001E+02  0.00000000000E+00 0.  1.
          6    1    1    2  502    0 -0.11523180464E+03  0.18276484119E+03  0.61213508197E+03  0.67154650960E+03  0.17200000000E+03 0. -1.
         -6    1    1    2    0  501  0.11523180464E+03 -0.18276484119E+03  0.90709305082E+03  0.94819995720E+03  0.17200000000E+03 0.  1.
</event>
<event>
 4    1  0.3196149E-002  0.2788297E+03  0.7818608E-02  0.1096330E+00
          2   -1    0    0  502    0  0.00000000000E+00  0.00000000000E+00  0.28872352021E+04  0.28872352021E+04  0.00000000000E+00 0. -1.
         -2   -1    0    0    0  501 -0.00000000000E+00 -0.00000000000E+00 -0.39464402760E+02  0.39464402760E+02  0.00000000000E+00 0.  1.
          6    1    1    2  502    0 -0.20134391078E+03 -0.87307763933E+02  0.22486700571E+04  0.22658912246E+04  0.17200000000E+03 0. -1.
         -6    1    1    2    0  501  0.20134391078E+03  0.87307763933E+02  0.59910074218E+03  0.66080838019E+03  0.17200000000E+03 0.  1.
</event>
<event>
 4    1  0.3196149E-002  0.4069045E+03  0.7818608E-02  0.1041415E+00
          1   -1    0    0  502    0  0.00000000000E+00  0.00000000000E+00  0.12083662021E+04  0.12083662021E+04  0.00000000000E+00 0. -1.
         -1   -1    0    0    0  501 -0.00000000000E+00 -0.00000000000E+00 -0.13981608817E+03  0.13981608817E+03  0.00000000000E+00 0.  1.
          6    1    1    2  502    0  0.31973686102E+03  0.18372690021E+03  0.43896081165E+03  0.59854642955E+03  0.17200000000E+03 0.  1.
         -6    1    1    2    0  501 -0.31973686102E+03 -0.18372690021E+03  0.62958930228E+03  0.74963586074E+03  0.17200000000E+03 0. -1.
</event>
<event>
 4    1  0.3196149E-002  0.1982683E+03  0.7818608E-02  0.1151208E+00
          2   -1    0    0  502    0  0.00000000000E+00  0.00000000000E+00  0.10909801983E+04  0.10909801983E+04  0.00000000000E+00 0. -1.
         -2   -1    0    0    0  501 -0.00000000000E+00 -0.00000000000E+00 -0.47526844368E+02  0.47526844368E+02  0.00000000000E+00 0.  1.
          6    1    1    2  502    0 -0.35978835294E+02 -0.91825074104E+02  0.24177332884E+03  0.31267341326E+03  0.17200000000E+03 0.  1.
         -6    1    1    2    0  501  0.35978835294E+02  0.91825074104E+02  0.80168002509E+03  0.82583362940E+03  0.17200000000E+03 0. -1.
</event>
<event>
 4    1  0.3196149E-002  0.3692124E+03  0.7818608E-02  0.1054995E+00
         -2   -1    0    0    0  501 -0.00000000000E+00  0.00000000000E+00  0.24901639188E+03  0.24901639188E+03  0.00000000000E+00 0.  1.
          2   -1    0    0  502    0  0.00000000000E+00 -0.00000000000E+00 -0.55082670329E+03  0.55082670329E+03  0.00000000000E+00 0. -1.
          6    1    1    2  502    0  0.29510798084E+03 -0.14016096395E+03 -0.18233273652E+03  0.41178033340E+03  0.17200000000E+03 0. -1.
         -6    1    1    2    0  501 -0.29510798084E+03  0.14016096395E+03 -0.11947757490E+03  0.38806276177E+03  0.17200000000E+03 0.  1.
</event>
<event>
 4    1  0.3196149E-002  0.1920544E+03  0.7818608E-02  0.1156621E+00
         -1   -1    0    0    0  501 -0.00000000000E+00  0.00000000000E+00  0.13498345513E+03  0.13498345513E+03  0.00000000000E+00 0.  1.
          1   -1    0    0  502    0  0.00000000000E+00 -0.00000000000E+00 -0.85921963605E+03  0.85921963605E+03  0.00000000000E+00 0. -1.
          6    1    1    2  502    0 -0.74170311610E+02 -0.42422558552E+02 -0.77263278487E+03  0.79614466578E+03  0.17200000000E+03 0. -1.
         -6    1    1    2    0  501  0.74170311610E+02  0.42422558552E+02  0.48396603948E+02  0.19805842540E+03  0.17200000000E+03 0.  1.
</event>
<event>
 4    1  0.3196149E-002  0.1835184E+03  0.7818608E-02  0.1164441E+00
          1   -1    0    0  502    0  0.00000000000E+00  0.00000000000E+00  0.32821965621E+04  0.32821965621E+04  0.00000000000E+00 0. -1.
         -1   -1    0    0    0  501 -0.00000000000E+00 -0.00000000000E+00 -0.10488136790E+02  0.10488136790E+02  0.00000000000E+00 0.  1.
          6    1    1    2  502    0 -0.46453996594E+02 -0.44011742928E+02  0.13936389184E+04  0.14056701043E+04  0.17200000000E+03 0.  1.
         -6    1    1    2    0  501  0.46453996594E+02  0.44011742928E+02  0.18780695070E+04  0.18870145946E+04  0.17200000000E+03 0.  1.
</event>
<event>
 4    1  0.3196149E-002  0.1931402E+03  0.7818608E-02  0.1155659E+00
         -1   -1    0    0    0  501 -0.00000000000E+00  0.00000000000E+00  0.43264786073E+03  0.43264786073E+03  0.00000000000E+00 0.  1.
          1   -1    0    0  502    0  0.00000000000E+00 -0.00000000000E+00 -0.10989679302E+03  0.10989679302E+03  0.00000000000E+00 0. -1.
          6    1    1    2  502    0 -0.65268739134E+02 -0.58814469879E+02  0.35462964015E+02  0.19636896901E+03  0.17200000000E+03 0. -1.
         -6    1    1    2    0  501  0.65268739134E+02  0.58814469879E+02  0.28728810369E+03  0.34617568473E+03  0.17200000000E+03 0.  1.
</event>
<event>
 4    1  0.3196149E-002  0.3321673E+03  0.7818608E-02  0.1070182E+00
          2   -1    0    0  502    0  0.00000000000E+00  0.00000000000E+00  0.69112313744E+03  0.69112313744E+03  0.00000000000E+00 0. -1.
         -2   -1    0    0    0  501 -0.00000000000E+00 -0.00000000000E+00 -0.16018737852E+03  0.16018737852E+03  0.00000000000E+00 0.  1.
          6    1    1    2  502    0 -0.34657386108E+02 -0.28204606324E+03  0.29021089862E+03  0.44108670563E+03  0.17200000000E+03 0. -1.
         -6    1    1    2    0  501  0.34657386108E+02  0.28204606324E+03  0.24072486029E+03  0.41022381033E+03  0.17200000000E+03 0.  1.
</event>
<event>
 4    1  0.3196149E-002  0.2690107E+03  0.7818608E-02  0.1101847E+00
          2   -1    0    0  502    0  0.00000000000E+00  0.00000000000E+00  0.43833834496E+03  0.43833834496E+03  0.00000000000E+00 0. -1.
         -2   -1    0    0    0  501 -0.00000000000E+00 -0.00000000000E+00 -0.16729225964E+03  0.16729225964E+03  0.00000000000E+00 0.  1.
          6    1    1    2  502    0  0.20095392950E+03 -0.48992558784E+02  0.17024003191E+03  0.31835266775E+03  0.17200000000E+03 0. -1.
         -6    1    1    2    0  501 -0.20095392950E+03  0.48992558784E+02  0.10080605341E+03  0.28727793685E+03  0.17200000000E+03 0.  1.
</event>
<event>
 4    1  0.3196149E-002  0.2067679E+03  0.7818608E-02  0.1144151E+00
         -4   -1    0    0    0  501 -0.00000000000E+00  0.00000000000E+00  0.13926395991E+04  0.13926395991E+04  0.00000000000E+00 0.  1.
          4   -1    0    0  502    0  0.00000000000E+00 -0.00000000000E+00 -0.32550059074E+02  0.32550059074E+02  0.00000000000E+00 0. -1.
          6    1    1    2  502    0  0.10221834719E+03  0.52157360828E+02  0.51012321877E+03  0.55043499082E+03  0.17200000000E+03 0. -1.
         -6    1    1    2    0  501 -0.10221834719E+03 -0.52157360828E+02  0.84996632129E+03  0.87475466738E+03  0.17200000000E+03 0.  1.
</event>
<event>
 4    1  0.3196149E-002  0.4032989E+03  0.7818608E-02  0.1042643E+00
         -2   -1    0    0    0  501 -0.00000000000E+00  0.00000000000E+00  0.90017534576E+02  0.90017534576E+02  0.00000000000E+00 0.  1.
          2   -1    0    0  502    0  0.00000000000E+00 -0.00000000000E+00 -0.27312903877E+04  0.27312903877E+04  0.00000000000E+00 0. -1.
          6    1    1    2  502    0 -0.15782354331E+03 -0.32887346202E+03 -0.21413114233E+04  0.21789595307E+04  0.17200000000E+03 0. -1.
         -6    1    1    2    0  501  0.15782354331E+03  0.32887346202E+03 -0.49996142976E+03  0.64234839152E+03  0.17200000000E+03 0.  1.
</event>
<event>
 4    1  0.3196149E-002  0.1848325E+03  0.7818608E-02  0.1163206E+00
          2   -1    0    0  502    0  0.00000000000E+00  0.00000000000E+00  0.24309617241E+03  0.24309617241E+03  0.00000000000E+00 0. -1.
         -2   -1    0    0    0  501 -0.00000000000E+00 -0.00000000000E+00 -0.19879085549E+03  0.19879085549E+03  0.00000000000E+00 0.  1.
          6    1    1    2  502    0 -0.67555122343E+02 -0.39199630993E+01  0.14176056792E+03  0.23293586946E+03  0.17200000000E+03 0. -1.
         -6    1    1    2    0  501  0.67555122343E+02  0.39199630993E+01 -0.97455250998E+02  0.20895115844E+03  0.17200000000E+03 0.  1.
</event>
<event>
 4    1  0.3196149E-002  0.2148291E+03  0.7818608E-02  0.1137798E+00
         -4   -1    0    0    0  501 -0.00000000000E+00  0.00000000000E+00  0.16762589902E+03  0.16762589902E+03  0.00000000000E+00 0.  1.
          4   -1    0    0  502    0  0.00000000000E+00 -0.00000000000E+00 -0.31979241724E+03  0.31979241724E+03  0.00000000000E+00 0. -1.
          6    1    1    2  502    0 -0.87395419970E+02 -0.94496421292E+02 -0.16696166282E+03  0.27208037401E+03  0.17200000000E+03 0. -1.
         -6    1    1    2    0  501  0.87395419970E+02  0.94496421292E+02  0.14795144607E+02  0.21533794225E+03  0.17200000000E+03 0.  1.
</event>
<event>
 4    1  0.3196149E-002  0.1785552E+03  0.7818608E-02  0.1169209E+00
          1   -1    0    0  502    0  0.00000000000E+00  0.00000000000E+00  0.10732597330E+04  0.10732597330E+04  0.00000000000E+00 0. -1.
         -1   -1    0    0    0  501 -0.00000000000E+00 -0.00000000000E+00 -0.32005690015E+02  0.32005690015E+02  0.00000000000E+00 0.  1.
          6    1    1    2  502    0  0.89833387299E+01 -0.47087707770E+02  0.37248300212E+03  0.41306844404E+03  0.17200000000E+03 0.  1.
         -6    1    1    2    0  501 -0.89833387299E+01  0.47087707770E+02  0.66877104091E+03  0.69219697902E+03  0.17200000000E+03 0. -1.
</event>
<event>
 4    1  0.3196149E-002  0.2841602E+03  0.7818608E-02  0.1093438E+00
         -2   -1    0    0    0  501 -0.00000000000E+00  0.00000000000E+00  0.16635208054E+03  0.16635208054E+03  0.00000000000E+00 0.  1.
          2   -1    0    0  502    0  0.00000000000E+00 -0.00000000000E+00 -0.37288201400E+04  0.37288201400E+04  0.00000000000E+00 0. -1.
          6    1    1    2  502    0  0.21522029567E+03 -0.69593452715E+02 -0.35976389358E+04  0.36088437119E+04  0.17200000000E+03 0. -1.
         -6    1    1    2    0  501 -0.21522029567E+03  0.69593452715E+02  0.35170876352E+02  0.28632850866E+03  0.17200000000E+03 0.  1.
</event>
<event>
 4    1  0.3196149E-002  0.1850949E+03  0.7818608E-02  0.1162961E+00
         -2   -1    0    0    0  501 -0.00000000000E+00  0.00000000000E+00  0.24548412322E+02  0.24548412322E+02  0.00000000000E+00 0.  1.
          2   -1    0    0  502    0  0.00000000000E+00 -0.00000000000E+00 -0.21769413866E+04  0.21769413866E+04  0.00000000000E+00 0. -1.
          6    1    1    2  502    0 -0.62712471688E+02 -0.27263234249E+02 -0.17356428788E+04  0.17454845576E+04  0.17200000000E+03 0. -1.
         -6    1    1    2    0  501  0.62712471688E+02  0.27263234249E+02 -0.41675009551E+03  0.45600524137E+03  0.17200000000E+03 0.  1.
</event>
<event>
 4    1  0.3196149E-002  0.1743615E+03  0.7818608E-02  0.1173374E+00
         -2   -1    0    0    0  501 -0.00000000000E+00  0.00000000000E+00  0.49997082531E+02  0.49997082531E+02  0.00000000000E+00 0.  1.
          2   -1    0    0  502    0  0.00000000000E+00 -0.00000000000E+00 -0.92477789630E+03  0.92477789630E+03  0.00000000000E+00 0. -1.
          6    1    1    2  502    0  0.92108099789E+01 -0.27075726382E+02 -0.72261190066E+03  0.74335045097E+03  0.17200000000E+03 0. -1.
         -6    1    1    2    0  501 -0.92108099789E+01  0.27075726382E+02 -0.15216891311E+03  0.23142452786E+03  0.17200000000E+03 0.  1.
</event>
<event>
 4    1  0.3196149E-002  0.2168359E+03  0.7818608E-02  0.1136264E+00
         -2   -1    0    0    0  501 -0.00000000000E+00  0.00000000000E+00  0.83937844060E+02  0.83937844060E+02  0.00000000000E+00 0.  1.
          2   -1    0    0  502    0  0.00000000000E+00 -0.00000000000E+00 -0.58847835225E+03  0.58847835225E+03  0.00000000000E+00 0. -1.
          6    1    1    2  502    0  0.91842817590E+02  0.94861586578E+02 -0.32603517680E+03  0.39155684167E+03  0.17200000000E+03 0. -1.
         -6    1    1    2    0  501 -0.91842817590E+02 -0.94861586578E+02 -0.17850533139E+03  0.28085935463E+03  0.17200000000E+03 0.  1.
</event>
<event>
 4    1  0.3196149E-002  0.2536801E+03  0.7818608E-02  0.1111001E+00
         -2   -1    0    0    0  501 -0.00000000000E+00  0.00000000000E+00  0.25723516854E+03  0.25723516854E+03  0.00000000000E+00 0.  1.
          2   -1    0    0  502    0  0.00000000000E+00 -0.00000000000E+00 -0.25682633340E+03  0.25682633340E+03  0.00000000000E+00 0. -1.
          6    1    1    2  502    0  0.16721941362E+03  0.82506008066E+02 -0.41162146010E+02  0.25699785198E+03  0.17200000000E+03 0.  1.
         -6    1    1    2    0  501 -0.16721941362E+03 -0.82506008066E+02  0.41570981149E+02  0.25706364996E+03  0.17200000000E+03 0.  1.
</event>
<event>
 4    1  0.3196149E-002  0.5217196E+03  0.7818608E-02  0.1008260E+00
          2   -1    0    0  502    0  0.00000000000E+00  0.00000000000E+00  0.14688215618E+04  0.14688215618E+04  0.00000000000E+00 0. -1.
         -2   -1    0    0    0  501 -0.00000000000E+00 -0.00000000000E+00 -0.21094376190E+03  0.21094376190E+03  0.00000000000E+00 0.  1.
          6    1    1    2  502    0 -0.42133985834E+03 -0.25510804060E+03  0.33617467879E+03  0.62064869553E+03  0.17200000000E+03 0. -1.
         -6    1    1    2    0  501  0.42133985834E+03  0.25510804060E+03  0.92170312111E+03  0.10591166282E+04  0.17200000000E+03 0.  1.
</event>
<event>
 4    1  0.3196149E-002  0.1823485E+03  0.7818608E-02  0.1165549E+00
          4   -1    0    0  502    0  0.00000000000E+00  0.00000000000E+00  0.23422146437E+03  0.23422146437E+03  0.00000000000E+00 0. -1.
         -4   -1    0    0    0  501 -0.00000000000E+00 -0.00000000000E+00 -0.15585167867E+03  0.15585167867E+03  0.00000000000E+00 0.  1.
          6    1    1    2  502    0 -0.41868809336E+01  0.60410724189E+02  0.97405559073E+02  0.20673371401E+03  0.17200000000E+03 0. -1.
         -6    1    1    2    0  501  0.41868809336E+01 -0.60410724189E+02 -0.19035773368E+02  0.18333942903E+03  0.17200000000E+03 0.  1.
</event>
<event>
 4    1  0.3196149E-002  0.1791274E+03  0.7818608E-02  0.1168650E+00
          2   -1    0    0  502    0  0.00000000000E+00  0.00000000000E+00  0.40022903222E+03  0.40022903222E+03  0.00000000000E+00 0. -1.
         -2   -1    0    0    0  501 -0.00000000000E+00 -0.00000000000E+00 -0.11759571419E+03  0.11759571419E+03  0.00000000000E+00 0.  1.
          6    1    1    2  502    0  0.20405082792E+02 -0.45675418212E+02  0.28737907724E+03  0.33863453053E+03  0.17200000000E+03 0. -1.
         -6    1    1    2    0  501 -0.20405082792E+02  0.45675418212E+02 -0.47457592136E+01  0.17919021587E+03  0.17200000000E+03 0.  1.
</event>
<event>
 4    1  0.3196149E-002  0.1977738E+04  0.7818608E-02  0.8617100E-01
         -1   -1    0    0    0  501 -0.00000000000E+00  0.00000000000E+00  0.17269115157E+04  0.17269115157E+04  0.00000000000E+00 0.  1.
          1   -1    0    0  502    0  0.00000000000E+00 -0.00000000000E+00 -0.22655331722E+04  0.22655331722E+04  0.00000000000E+00 0. -1.
          6    1    1    2  502    0 -0.18539829584E+03  0.19615025277E+04 -0.30003228896E+03  0.20003669835E+04  0.17200000000E+03 0. -1.
         -6    1    1    2    0  501  0.18539829584E+03 -0.19615025277E+04 -0.23858936759E+03  0.19920777044E+04  0.17200000000E+03 0.  1.
</event>
<event>
 4    1  0.3196149E-002  0.2502505E+03  0.7818608E-02  0.1113147E+00
          2   -1    0    0  502    0  0.00000000000E+00  0.00000000000E+00  0.24606303828E+04  0.24606303828E+04  0.00000000000E+00 0. -1.
         -2   -1    0    0    0  501 -0.00000000000E+00 -0.00000000000E+00 -0.33110482025E+02  0.33110482025E+02  0.00000000000E+00 0.  1.
          6    1    1    2  502    0  0.12523653319E+03  0.13174649571E+03  0.18134685788E+04  0.18306538763E+04  0.17200000000E+03 0. -1.
         -6    1    1    2    0  501 -0.12523653319E+03 -0.13174649571E+03  0.61405132194E+03  0.66308698852E+03  0.17200000000E+03 0.  1.
</event>
<event>
 4    1  0.3196149E-002  0.1741011E+03  0.7818608E-02  0.1173637E+00
         -3   -1    0    0    0  501 -0.00000000000E+00  0.00000000000E+00  0.41069445929E+03  0.41069445929E+03  0.00000000000E+00 0.  1.
          3   -1    0    0  502    0  0.00000000000E+00 -0.00000000000E+00 -0.10909989304E+03  0.10909989304E+03  0.00000000000E+00 0. -1.
          6    1    1    2  502    0 -0.24375518206E+02  0.11534311044E+02  0.29726510299E+01  0.17412651399E+03  0.17200000000E+03 0. -1.
         -6    1    1    2    0  501  0.24375518206E+02 -0.11534311044E+02  0.29862191521E+03  0.34566783834E+03  0.17200000000E+03 0.  1.
</event>
<event>
 4    1  0.3196149E-002  0.2047318E+03  0.7818608E-02  0.1145807E+00
          4   -1    0    0  502    0  0.00000000000E+00  0.00000000000E+00  0.22686891905E+03  0.22686891905E+03  0.00000000000E+00 0. -1.
         -4   -1    0    0    0  501 -0.00000000000E+00 -0.00000000000E+00 -0.18496703128E+03  0.18496703128E+03  0.00000000000E+00 0.  1.
          6    1    1    2  502    0  0.83795551793E+02  0.72865781691E+02  0.27926436779E+02  0.20662769058E+03  0.17200000000E+03 0. -1.
         -6    1    1    2    0  501 -0.83795551793E+02 -0.72865781691E+02  0.13975450984E+02  0.20520825976E+03  0.17200000000E+03 0. -1.
</event>
<event>
 4    1  0.3196149E-002  0.3130393E+03  0.7818608E-02  0.1078898E+00
          1   -1    0    0  502    0  0.00000000000E+00  0.00000000000E+00  0.19848798309E+03  0.19848798309E+03  0.00000000000E+00 0. -1.
         -1   -1    0    0    0  501 -0.00000000000E+00 -0.00000000000E+00 -0.71791804854E+03  0.71791804854E+03  0.00000000000E+00 0.  1.
          6    1    1    2  502    0  0.61655346876E+02 -0.25418142406E+03 -0.51578314189E+03  0.60334552919E+03  0.17200000000E+03 0. -1.
         -6    1    1    2    0  501 -0.61655346876E+02  0.25418142406E+03 -0.36469235671E+01  0.31306050244E+03  0.17200000000E+03 0.  1.
</event>
<event>
 4    1  0.3196149E-002  0.2974048E+03  0.7818608E-02  0.1086545E+00
          4   -1    0    0  502    0  0.00000000000E+00  0.00000000000E+00  0.56645961257E+02  0.56645961257E+02  0.00000000000E+00 0. -1.
         -4   -1    0    0    0  501 -0.00000000000E+00 -0.00000000000E+00 -0.17801376993E+04  0.17801376993E+04  0.00000000000E+00 0.  1.
          6    1    1    2  502    0 -0.12663163751E+03 -0.20695425683E+03 -0.53984889107E+03  0.61634930131E+03  0.17200000000E+03 0. -1.
         -6    1    1    2    0  501  0.12663163751E+03  0.20695425683E+03 -0.11836428470E+04  0.12204343593E+04  0.17200000000E+03 0.  1.
</event>
<event>
 4    1  0.3196149E-002  0.3834532E+03  0.7818608E-02  0.1049665E+00
         -2   -1    0    0    0  501 -0.00000000000E+00  0.00000000000E+00  0.86351849743E+02  0.86351849743E+02  0.00000000000E+00 0.  1.
          2   -1    0    0  502    0  0.00000000000E+00 -0.00000000000E+00 -0.23961484808E+04  0.23961484808E+04  0.00000000000E+00 0. -1.
          6    1    1    2  502    0  0.14915925852E+02  0.34238844899E+03 -0.18226135393E+04  0.18625134761E+04  0.17200000000E+03 0. -1.
         -6    1    1    2    0  501 -0.14915925852E+02 -0.34238844899E+03 -0.48718309176E+03  0.61998685449E+03  0.17200000000E+03 0.  1.
</event>
<event>
 4    1  0.3196149E-002  0.1730509E+03  0.7818608E-02  0.1174703E+00
         -2   -1    0    0    0  501 -0.00000000000E+00  0.00000000000E+00  0.58094212133E+02  0.58094212133E+02  0.00000000000E+00 0.  1.
          2   -1    0    0  502    0  0.00000000000E+00 -0.00000000000E+00 -0.51693786807E+03  0.51693786807E+03  0.00000000000E+00 0. -1.
          6    1    1    2  502    0  0.11619860242E+02 -0.15086187663E+02 -0.21417204738E+03  0.27534756234E+03  0.17200000000E+03 0. -1.
         -6    1    1    2    0  501 -0.11619860242E+02  0.15086187663E+02 -0.24467160856E+03  0.29968451786E+03  0.17200000000E+03 0. -1.
</event>
<event>
 4    1  0.3196149E-002  0.1919490E+03  0.7818608E-02  0.1156715E+00
          1   -1    0    0  502    0  0.00000000000E+00  0.00000000000E+00  0.86851299167E+02  0.86851299167E+02  0.00000000000E+00 0. -1.
         -1   -1    0    0    0  501 -0.00000000000E+00 -0.00000000000E+00 -0.43984988083E+03  0.43984988083E+03  0.00000000000E+00 0.  1.
          6    1    1    2  502    0  0.81348825266E+02  0.25353141764E+02 -0.12686256928E+03  0.23008373400E+03  0.17200000000E+03 0.  1.
         -6    1    1    2    0  501 -0.81348825266E+02 -0.25353141764E+02 -0.22613601238E+03  0.29661744599E+03  0.17200000000E+03 0. -1.
</event>
<event>
 4    1  0.3196149E-002  0.2148519E+03  0.7818608E-02  0.1137780E+00
          2   -1    0    0  502    0  0.00000000000E+00  0.00000000000E+00  0.12363763159E+03  0.12363763159E+03  0.00000000000E+00 0. -1.
         -2   -1    0    0    0  501 -0.00000000000E+00 -0.00000000000E+00 -0.56535890309E+03  0.56535890309E+03  0.00000000000E+00 0.  1.
          6    1    1    2  502    0  0.67896056056E+02 -0.10939591351E+03 -0.20101946737E+02  0.21579024209E+03  0.17200000000E+03 0. -1.
         -6    1    1    2    0  501 -0.67896056056E+02  0.10939591351E+03 -0.42161932477E+03  0.47320629258E+03  0.17200000000E+03 0.  1.
</event>
<event>
 4    1  0.3196149E-002  0.2644509E+03  0.7818608E-02  0.1104498E+00
         -1   -1    0    0    0  501 -0.00000000000E+00  0.00000000000E+00  0.10173494459E+03  0.10173494459E+03  0.00000000000E+00 0.  1.
          1   -1    0    0  502    0  0.00000000000E+00 -0.00000000000E+00 -0.68753836540E+03  0.68753836540E+03  0.00000000000E+00 0. -1.
          6    1    1    2  502    0  0.14877776190E+03  0.13496470757E+03 -0.29815248056E+03  0.39853380834E+03  0.17200000000E+03 0. -1.
         -6    1    1    2    0  501 -0.14877776190E+03 -0.13496470757E+03 -0.28765094025E+03  0.39073950165E+03  0.17200000000E+03 0.  1.
</event>
<event>
 4    1  0.3196149E-002  0.3316531E+03  0.7818608E-02  0.1070408E+00
         -1   -1    0    0    0  501 -0.00000000000E+00  0.00000000000E+00  0.19547321721E+03  0.19547321721E+03  0.00000000000E+00 0.  1.
          1   -1    0    0  502    0  0.00000000000E+00 -0.00000000000E+00 -0.66708232504E+03  0.66708232504E+03  0.00000000000E+00 0. -1.
          6    1    1    2  502    0 -0.27887976402E+03 -0.51340892689E+02 -0.65208150492E+02  0.33800282977E+03  0.17200000000E+03 0.  1.
         -6    1    1    2    0  501  0.27887976402E+03  0.51340892689E+02 -0.40640095734E+03  0.52455271248E+03  0.17200000000E+03 0. -1.
</event>
<event>
 4    1  0.3196149E-002  0.3135124E+03  0.7818608E-02  0.1078674E+00
          2   -1    0    0  502    0  0.00000000000E+00  0.00000000000E+00  0.15129993319E+04  0.15129993319E+04  0.00000000000E+00 0. -1.
         -2   -1    0    0    0  501 -0.00000000000E+00 -0.00000000000E+00 -0.10238560146E+03  0.10238560146E+03  0.00000000000E+00 0.  1.
          6    1    1    2  502    0  0.28101053790E+02  0.26060761803E+03  0.11936101531E+04  0.12340969158E+04  0.17200000000E+03 0. -1.
         -6    1    1    2    0  501 -0.28101053790E+02 -0.26060761803E+03  0.21700357726E+03  0.38128801757E+03  0.17200000000E+03 0.  1.
</event>
<event>
 4    1  0.3196149E-002  0.2712900E+03  0.7818608E-02  0.1100544E+00
         -1   -1    0    0    0  501 -0.00000000000E+00  0.00000000000E+00  0.44480434584E+03  0.44480434584E+03  0.00000000000E+00 0.  1.
          1   -1    0    0  502    0  0.00000000000E+00 -0.00000000000E+00 -0.45841740067E+03  0.45841740067E+03  0.00000000000E+00 0. -1.
          6    1    1    2  502    0  0.14900187078E+03 -0.14769130613E+03 -0.36782921288E+03  0.45705208593E+03  0.17200000000E+03 0. -1.
         -6    1    1    2    0  501 -0.14900187078E+03  0.14769130613E+03  0.35421615805E+03  0.44616966059E+03  0.17200000000E+03 0.  1.
</event>
<event>
 4    1  0.3196149E-002  0.1764070E+03  0.7818608E-02  0.1171326E+00
         -1   -1    0    0    0  501 -0.00000000000E+00  0.00000000000E+00  0.49344718772E+02  0.49344718772E+02  0.00000000000E+00 0.  1.
          1   -1    0    0  502    0  0.00000000000E+00 -0.00000000000E+00 -0.67744901618E+03  0.67744901618E+03  0.00000000000E+00 0. -1.
          6    1    1    2  502    0  0.20550280826E+02 -0.33363373979E+02 -0.40956111184E+03  0.44593691605E+03  0.17200000000E+03 0. -1.
         -6    1    1    2    0  501 -0.20550280826E+02  0.33363373979E+02 -0.21854318557E+03  0.28085681891E+03  0.17200000000E+03 0.  1.
</event>
<event>
 4    1  0.3196149E-002  0.2261888E+03  0.7818608E-02  0.1129351E+00
          1   -1    0    0  502    0  0.00000000000E+00  0.00000000000E+00  0.32369404336E+04  0.32369404336E+04  0.00000000000E+00 0. -1.
         -1   -1    0    0    0  501 -0.00000000000E+00 -0.00000000000E+00 -0.28367845340E+02  0.28367845340E+02  0.00000000000E+00 0.  1.
          6    1    1    2  502    0  0.98153683426E+02 -0.10928512829E+03  0.26907539321E+04  0.27002440830E+04  0.17200000000E+03 0. -1.
         -6    1    1    2    0  501 -0.98153683426E+02  0.10928512829E+03  0.51781865619E+03  0.56506419594E+03  0.17200000000E+03 0.  1.
</event>
<event>
 4    1  0.3196149E-002  0.5145757E+03  0.7818608E-02  0.1010043E+00
         -2   -1    0    0    0  501 -0.00000000000E+00  0.00000000000E+00  0.19036575460E+04  0.19036575460E+04  0.00000000000E+00 0.  1.
          2   -1    0    0  502    0  0.00000000000E+00 -0.00000000000E+00 -0.14679808474E+03  0.14679808474E+03  0.00000000000E+00 0. -1.
          6    1    1    2  502    0 -0.38394103106E+03  0.29629954434E+03  0.64356977448E+03  0.82399647447E+03  0.17200000000E+03 0. -1.
         -6    1    1    2    0  501  0.38394103106E+03 -0.29629954434E+03  0.11132896868E+04  0.12264591563E+04  0.17200000000E+03 0.  1.
</event>
<event>
 4    1  0.3196149E-002  0.1834779E+03  0.7818608E-02  0.1164479E+00
         -1   -1    0    0    0  501 -0.00000000000E+00  0.00000000000E+00  0.53491257297E+02  0.53491257297E+02  0.00000000000E+00 0.  1.
          1   -1    0    0  502    0  0.00000000000E+00 -0.00000000000E+00 -0.96659193713E+03  0.96659193713E+03  0.00000000000E+00 0. -1.
          6    1    1    2  502    0  0.43744709271E+02  0.46546082242E+02 -0.75782447436E+03  0.77971922594E+03  0.17200000000E+03 0. -1.
         -6    1    1    2    0  501 -0.43744709271E+02 -0.46546082242E+02 -0.15527620547E+03  0.24036396849E+03  0.17200000000E+03 0.  1.
</event>
<event>
 4    1  0.3196149E-002  0.1943380E+03  0.7818608E-02  0.1154606E+00
         -1   -1    0    0    0  501 -0.00000000000E+00  0.00000000000E+00  0.16378829180E+02  0.16378829180E+02  0.00000000000E+00 0.  1.
          1   -1    0    0  502    0  0.00000000000E+00 -0.00000000000E+00 -0.26008700867E+04  0.26008700867E+04  0.00000000000E+00 0. -1.
          6    1    1    2  502    0  0.21305759853E+02  0.87916574316E+02 -0.17329784327E+04  0.17438410213E+04  0.17200000000E+03 0. -1.
         -6    1    1    2    0  501 -0.21305759853E+02 -0.87916574316E+02 -0.85151282477E+03  0.87340789451E+03  0.17200000000E+03 0.  1.
</event>
<event>
 4    1  0.3196149E-002  0.2188813E+03  0.7818608E-02  0.1134720E+00
          1   -1    0    0  502    0  0.00000000000E+00  0.00000000000E+00  0.97293660517E+03  0.97293660517E+03  0.00000000000E+00 0. -1.
         -1   -1    0    0    0  501 -0.00000000000E+00 -0.00000000000E+00 -0.66802040099E+02  0.66802040099E+02  0.00000000000E+00 0.  1.
          6    1    1    2  502    0  0.70258791988E+02  0.11570961859E+03  0.71960966881E+03  0.75216161105E+03  0.17200000000E+03 0. -1.
         -6    1    1    2    0  501 -0.70258791988E+02 -0.11570961859E+03  0.18652489626E+03  0.28757703422E+03  0.17200000000E+03 0.  1.
</event>
<event>
 4    1  0.3196149E-002  0.1775201E+03  0.7818608E-02  0.1170225E+00
          2   -1    0    0  502    0  0.00000000000E+00  0.00000000000E+00  0.17855564562E+03  0.17855564562E+03  0.00000000000E+00 0. -1.
         -2   -1    0    0    0  501 -0.00000000000E+00 -0.00000000000E+00 -0.17663673716E+03  0.17663673716E+03  0.00000000000E+00 0.  1.
          6    1    1    2  502    0 -0.11720292531E+02  0.42332123644E+02  0.60695870456E+01  0.17762379862E+03  0.17200000000E+03 0. -1.
         -6    1    1    2    0  501  0.11720292531E+02 -0.42332123644E+02 -0.41506785911E+01  0.17756858416E+03  0.17200000000E+03 0.  1.
</event>
<event>
 4    1  0.3196149E-002  0.2624966E+03  0.7818608E-02  0.1105652E+00
         -2   -1    0    0    0  501 -0.00000000000E+00  0.00000000000E+00  0.26472574554E+03  0.26472574554E+03  0.00000000000E+00 0.  1.
          2   -1    0    0  502    0  0.00000000000E+00 -0.00000000000E+00 -0.27503947223E+03  0.27503947223E+03  0.00000000000E+00 0. -1.
          6    1    1    2  502    0 -0.78437573078E+02  0.18212090800E+03  0.57348958847E+02  0.26868826004E+03  0.17200000000E+03 0. -1.
         -6    1    1    2    0  501  0.78437573078E+02 -0.18212090800E+03 -0.67662685539E+02  0.27107695773E+03  0.17200000000E+03 0.  1.
</event>
<event>
 4    1  0.3196149E-002  0.1997812E+03  0.7818608E-02  0.1149924E+00
          2   -1    0    0  502    0  0.00000000000E+00  0.00000000000E+00  0.32784156333E+04  0.32784156333E+04  0.00000000000E+00 0. -1.
         -2   -1    0    0    0  501 -0.00000000000E+00 -0.00000000000E+00 -0.38796033846E+02  0.38796033846E+02  0.00000000000E+00 0.  1.
          6    1    1    2  502    0 -0.55707317438E+02  0.85001363961E+02  0.29937486045E+04  0.30004071797E+04  0.17200000000E+03 0. -1.
         -6    1    1    2    0  501  0.55707317438E+02 -0.85001363961E+02  0.24587099488E+03  0.31680448737E+03  0.17200000000E+03 0.  1.
</event>
<event>
 4    1  0.3196149E-002  0.2332083E+03  0.7818608E-02  0.1124402E+00
         -2   -1    0    0    0  501 -0.00000000000E+00  0.00000000000E+00  0.33731653751E+02  0.33731653751E+02  0.00000000000E+00 0.  1.
          2   -1    0    0  502    0  0.00000000000E+00 -0.00000000000E+00 -0.16484748754E+04  0.16484748754E+04  0.00000000000E+00 0. -1.
          6    1    1    2  502    0  0.15448845899E+03  0.30584817644E+02 -0.68280252660E+03  0.72152990608E+03  0.17200000000E+03 0.  1.
         -6    1    1    2    0  501 -0.15448845899E+03 -0.30584817644E+02 -0.93194069505E+03  0.96067662308E+03  0.17200000000E+03 0. -1.
</event>
<event>
 4    1  0.3196149E-002  0.4180938E+03  0.7818608E-02  0.1037689E+00
         -1   -1    0    0    0  501 -0.00000000000E+00  0.00000000000E+00  0.89471726781E+03  0.89471726781E+03  0.00000000000E+00 0.  1.
          1   -1    0    0  502    0  0.00000000000E+00 -0.00000000000E+00 -0.23202328971E+03  0.23202328971E+03  0.00000000000E+00 0. -1.
          6    1    1    2  502    0  0.17666488709E+03 -0.33765056815E+03  0.10743628860E+03  0.43167689840E+03  0.17200000000E+03 0. -1.
         -6    1    1    2    0  501 -0.17666488709E+03  0.33765056815E+03  0.55525768950E+03  0.69506365913E+03  0.17200000000E+03 0.  1.
</event>
<event>
 4    1  0.3196149E-002  0.2802543E+03  0.7818608E-02  0.1095550E+00
          1   -1    0    0  502    0  0.00000000000E+00  0.00000000000E+00  0.13131687612E+04  0.13131687612E+04  0.00000000000E+00 0. -1.
         -1   -1    0    0    0  501 -0.00000000000E+00 -0.00000000000E+00 -0.59955146134E+02  0.59955146134E+02  0.00000000000E+00 0.  1.
          6    1    1    2  502    0 -0.17632443631E+03  0.13367177260E+03  0.59298826599E+03  0.65587920628E+03  0.17200000000E+03 0. -1.
         -6    1    1    2    0  501  0.17632443631E+03 -0.13367177260E+03  0.66022534910E+03  0.71724470107E+03  0.17200000000E+03 0.  1.
</event>
<event>
 4    1  0.3196149E-002  0.1922384E+03  0.7818608E-02  0.1156458E+00
          2   -1    0    0  502    0  0.00000000000E+00  0.00000000000E+00  0.74080401386E+03  0.74080401386E+03  0.00000000000E+00 0. -1.
         -2   -1    0    0    0  501 -0.00000000000E+00 -0.00000000000E+00 -0.14558491620E+03  0.14558491620E+03  0.00000000000E+00 0.  1.
          6    1    1    2  502    0  0.85466553798E+02  0.81899886670E+01  0.65693673789E+03  0.68448629302E+03  0.17200000000E+03 0. -1.
         -6    1    1    2    0  501 -0.85466553798E+02 -0.81899886670E+01 -0.61717640231E+02  0.20190263705E+03  0.17200000000E+03 0.  1.
</event>
<event>
 4    1  0.3196149E-002  0.1758648E+03  0.7818608E-02  0.1171866E+00
          1   -1    0    0  502    0  0.00000000000E+00  0.00000000000E+00  0.22489253368E+04  0.22489253368E+04  0.00000000000E+00 0. -1.
         -1   -1    0    0    0  501 -0.00000000000E+00 -0.00000000000E+00 -0.14784603921E+02  0.14784603921E+02  0.00000000000E+00 0.  1.
          6    1    1    2  502    0  0.46016124423E-01 -0.36666467846E+02  0.81802327923E+03  0.83671411925E+03  0.17200000000E+03 0.  1.
         -6    1    1    2    0  501 -0.46016124423E-01  0.36666467846E+02  0.14161174536E+04  0.14269958215E+04  0.17200000000E+03 0. -1.
</event>
<event>
 4    1  0.3196149E-002  0.1780841E+03  0.7818608E-02  0.1169670E+00
         -1   -1    0    0    0  501 -0.00000000000E+00  0.00000000000E+00  0.98644731619E+02  0.98644731619E+02  0.00000000000E+00 0.  1.
          1   -1    0    0  502    0  0.00000000000E+00 -0.00000000000E+00 -0.32172800472E+03  0.32172800472E+03  0.00000000000E+00 0. -1.
          6    1    1    2  502    0 -0.43063683422E+02 -0.16597288071E+02 -0.10590527476E+03  0.20719526545E+03  0.17200000000E+03 0.  1.
         -6    1    1    2    0  501  0.43063683422E+02  0.16597288071E+02 -0.11717799834E+03  0.21317747089E+03  0.17200000000E+03 0.  1.
</event>
<event>
 4    1  0.3196149E-002  0.2058446E+03  0.7818608E-02  0.1144900E+00
          4   -1    0    0  502    0  0.00000000000E+00  0.00000000000E+00  0.17931569674E+03  0.17931569674E+03  0.00000000000E+00 0. -1.
         -4   -1    0    0    0  501 -0.00000000000E+00 -0.00000000000E+00 -0.29322818470E+03  0.29322818470E+03  0.00000000000E+00 0.  1.
          6    1    1    2  502    0 -0.37040278910E+02 -0.10684571823E+03  0.47150662417E+02  0.21117569636E+03  0.17200000000E+03 0. -1.
         -6    1    1    2    0  501  0.37040278910E+02  0.10684571823E+03 -0.16106315037E+03  0.26136818508E+03  0.17200000000E+03 0.  1.
</event>
<event>
 4    1  0.3196149E-002  0.1841563E+03  0.7818608E-02  0.1163840E+00
         -1   -1    0    0    0  501 -0.00000000000E+00  0.00000000000E+00  0.27187876119E+03  0.27187876119E+03  0.00000000000E+00 0.  1.
          1   -1    0    0  502    0  0.00000000000E+00 -0.00000000000E+00 -0.56438022362E+03  0.56438022362E+03  0.00000000000E+00 0. -1.
          6    1    1    2  502    0  0.53936226677E+02 -0.37688480460E+02 -0.51529183568E+03  0.54721039284E+03  0.17200000000E+03 0. -1.
         -6    1    1    2    0  501 -0.53936226677E+02  0.37688480460E+02  0.22279037325E+03  0.28904859197E+03  0.17200000000E+03 0.  1.
</event>
<event>
 4    1  0.3196149E-002  0.1801225E+03  0.7818608E-02  0.1167685E+00
         -2   -1    0    0    0  501 -0.00000000000E+00  0.00000000000E+00  0.39738011875E+02  0.39738011875E+02  0.00000000000E+00 0.  1.
          2   -1    0    0  502    0  0.00000000000E+00 -0.00000000000E+00 -0.97317346150E+03  0.97317346150E+03  0.00000000000E+00 0. -1.
          6    1    1    2  502    0 -0.43237273449E+02  0.31474766493E+02 -0.26347613951E+03  0.31916108603E+03  0.17200000000E+03 0.  1.
         -6    1    1    2    0  501  0.43237273449E+02 -0.31474766493E+02 -0.66995931012E+03  0.69375038735E+03  0.17200000000E+03 0. -1.
</event>
<event>
 4    1  0.3196149E-002  0.1997987E+03  0.7818608E-02  0.1149909E+00
         -1   -1    0    0    0  501 -0.00000000000E+00  0.00000000000E+00  0.60621027142E+02  0.60621027142E+02  0.00000000000E+00 0.  1.
          1   -1    0    0  502    0  0.00000000000E+00 -0.00000000000E+00 -0.74545644344E+03  0.74545644344E+03  0.00000000000E+00 0. -1.
          6    1    1    2  502    0 -0.20474690539E+02  0.99580577565E+02 -0.48006369305E+03  0.51998139752E+03  0.17200000000E+03 0. -1.
         -6    1    1    2    0  501  0.20474690539E+02 -0.99580577565E+02 -0.20477172325E+03  0.28609607307E+03  0.17200000000E+03 0.  1.
</event>
<event>
 4    1  0.3196149E-002  0.2828779E+03  0.7818608E-02  0.1094127E+00
          1   -1    0    0  502    0  0.00000000000E+00  0.00000000000E+00  0.17331727045E+03  0.17331727045E+03  0.00000000000E+00 0. -1.
         -1   -1    0    0    0  501 -0.00000000000E+00 -0.00000000000E+00 -0.56660715793E+03  0.56660715793E+03  0.00000000000E+00 0.  1.
          6    1    1    2  502    0 -0.22437161638E+03 -0.96586002511E+01 -0.35583903328E+03  0.45457818734E+03  0.17200000000E+03 0.  1.
         -6    1    1    2    0  501  0.22437161638E+03  0.96586002511E+01 -0.37450854193E+02  0.28534624104E+03  0.17200000000E+03 0.  1.
</event>
<event>
 4    1  0.3196149E-002  0.2401616E+03  0.7818608E-02  0.1119685E+00
          2   -1    0    0  502    0  0.00000000000E+00  0.00000000000E+00  0.23396701661E+04  0.23396701661E+04  0.00000000000E+00 0. -1.
         -2   -1    0    0    0  501 -0.00000000000E+00 -0.00000000000E+00 -0.48520314685E+02  0.48520314685E+02  0.00000000000E+00 0.  1.
          6    1    1    2  502    0 -0.65447955320E+02 -0.15430536714E+03  0.19830809024E+04  0.19975703859E+04  0.17200000000E+03 0. -1.
         -6    1    1    2    0  501  0.65447955320E+02  0.15430536714E+03  0.30806894906E+03  0.39062009493E+03  0.17200000000E+03 0.  1.
</event>
<event>
 4    1  0.3196149E-002  0.3680110E+03  0.7818608E-02  0.1055456E+00
          2   -1    0    0  502    0  0.00000000000E+00  0.00000000000E+00  0.21873076476E+04  0.21873076476E+04  0.00000000000E+00 0. -1.
         -2   -1    0    0    0  501 -0.00000000000E+00 -0.00000000000E+00 -0.71236110547E+02  0.71236110547E+02  0.00000000000E+00 0.  1.
          6    1    1    2  502    0 -0.22766244538E+03 -0.23241756511E+03  0.14664768365E+04  0.15119478912E+04  0.17200000000E+03 0. -1.
         -6    1    1    2    0  501  0.22766244538E+03  0.23241756511E+03  0.64959470054E+03  0.74659586697E+03  0.17200000000E+03 0.  1.
</event>
<event>
 4    1  0.3196149E-002  0.2092037E+03  0.7818608E-02  0.1142198E+00
         -2   -1    0    0    0  501 -0.00000000000E+00  0.00000000000E+00  0.10091268989E+03  0.10091268989E+03  0.00000000000E+00 0.  1.
          2   -1    0    0  502    0  0.00000000000E+00 -0.00000000000E+00 -0.18359531672E+04  0.18359531672E+04  0.00000000000E+00 0. -1.
          6    1    1    2  502    0  0.11733099098E+03 -0.20386766313E+02 -0.17138730266E+04  0.17265940267E+04  0.17200000000E+03 0. -1.
         -6    1    1    2    0  501 -0.11733099098E+03  0.20386766313E+02 -0.21167450705E+02  0.21027183039E+03  0.17200000000E+03 0.  1.
</event>
<event>
 4    1  0.3196149E-002  0.1796696E+03  0.7818608E-02  0.1168123E+00
         -2   -1    0    0    0  501 -0.00000000000E+00  0.00000000000E+00  0.12464574549E+04  0.12464574549E+04  0.00000000000E+00 0.  1.
          2   -1    0    0  502    0  0.00000000000E+00 -0.00000000000E+00 -0.28006958693E+02  0.28006958693E+02  0.00000000000E+00 0. -1.
          6    1    1    2  502    0 -0.29293857386E+02 -0.42884135969E+02  0.43437600815E+03  0.47006775645E+03  0.17200000000E+03 0. -1.
         -6    1    1    2    0  501  0.29293857386E+02  0.42884135969E+02  0.78407448801E+03  0.80439665710E+03  0.17200000000E+03 0.  1.
</event>
<event>
 4    1  0.3196149E-002  0.2394346E+03  0.7818608E-02  0.1120170E+00
         -2   -1    0    0    0  501 -0.00000000000E+00  0.00000000000E+00  0.51624253352E+02  0.51624253352E+02  0.00000000000E+00 0.  1.
          2   -1    0    0  502    0  0.00000000000E+00 -0.00000000000E+00 -0.12788351777E+04  0.12788351777E+04  0.00000000000E+00 0. -1.
          6    1    1    2  502    0  0.16653480559E+03 -0.33269800719E+01 -0.85495550137E+03  0.88785011099E+03  0.17200000000E+03 0. -1.
         -6    1    1    2    0  501 -0.16653480559E+03  0.33269800719E+01 -0.37225542303E+03  0.44260932010E+03  0.17200000000E+03 0.  1.
</event>
<event>
 4    1  0.3196149E-002  0.1808350E+03  0.7818608E-02  0.1166997E+00
         -1   -1    0    0    0  501 -0.00000000000E+00  0.00000000000E+00  0.14068757322E+03  0.14068757322E+03  0.00000000000E+00 0.  1.
          1   -1    0    0  502    0  0.00000000000E+00 -0.00000000000E+00 -0.29880127167E+03  0.29880127167E+03  0.00000000000E+00 0. -1.
          6    1    1    2  502    0  0.77368496182E+01  0.55294221200E+02 -0.18261553803E+03  0.25700144838E+03  0.17200000000E+03 0. -1.
         -6    1    1    2    0  501 -0.77368496182E+01 -0.55294221200E+02  0.24501839579E+02  0.18248739650E+03  0.17200000000E+03 0.  1.
</event>
<event>
 4    1  0.3196149E-002  0.2240419E+03  0.7818608E-02  0.1130905E+00
         -1   -1    0    0    0  501 -0.00000000000E+00  0.00000000000E+00  0.49760834002E+02  0.49760834002E+02  0.00000000000E+00 0.  1.
          1   -1    0    0  502    0  0.00000000000E+00 -0.00000000000E+00 -0.13957693410E+04  0.13957693410E+04  0.00000000000E+00 0. -1.
          6    1    1    2  502    0  0.14256543680E+03 -0.16907604912E+02 -0.10536081697E+04  0.10771652362E+04  0.17200000000E+03 0. -1.
         -6    1    1    2    0  501 -0.14256543680E+03  0.16907604912E+02 -0.29240033734E+03  0.36836493882E+03  0.17200000000E+03 0.  1.
</event>
<event>
 4    1  0.3196149E-002  0.2864780E+03  0.7818608E-02  0.1092203E+00
          2   -1    0    0  502    0  0.00000000000E+00  0.00000000000E+00  0.51145469967E+03  0.51145469967E+03  0.00000000000E+00 0. -1.
         -2   -1    0    0    0  501 -0.00000000000E+00 -0.00000000000E+00 -0.21318782384E+03  0.21318782384E+03  0.00000000000E+00 0.  1.
          6    1    1    2  502    0  0.15108540773E+03  0.17221735284E+03  0.32931887794E+03  0.43648658676E+03  0.17200000000E+03 0. -1.
         -6    1    1    2    0  501 -0.15108540773E+03 -0.17221735284E+03 -0.31052002111E+02  0.28815593675E+03  0.17200000000E+03 0.  1.
</event>
<event>
 4    1  0.3196149E-002  0.1867659E+03  0.7818608E-02  0.1161411E+00
          2   -1    0    0  502    0  0.00000000000E+00  0.00000000000E+00  0.12866144687E+04  0.12866144687E+04  0.00000000000E+00 0. -1.
         -2   -1    0    0    0  501 -0.00000000000E+00 -0.00000000000E+00 -0.34709081154E+02  0.34709081154E+02  0.00000000000E+00 0.  1.
          6    1    1    2  502    0 -0.70363948106E+02 -0.18612255648E+02  0.93505870014E+03  0.95352832887E+03  0.17200000000E+03 0. -1.
         -6    1    1    2    0  501  0.70363948106E+02  0.18612255648E+02  0.31684668737E+03  0.36779522094E+03  0.17200000000E+03 0.  1.
</event>
<event>
 4    1  0.3196149E-002  0.1780203E+03  0.7818608E-02  0.1169733E+00
          2   -1    0    0  502    0  0.00000000000E+00  0.00000000000E+00  0.24500386425E+04  0.24500386425E+04  0.00000000000E+00 0. -1.
         -2   -1    0    0    0  501 -0.00000000000E+00 -0.00000000000E+00 -0.16941826485E+02  0.16941826485E+02  0.00000000000E+00 0.  1.
          6    1    1    2  502    0 -0.32844203496E+01 -0.45786875238E+02  0.18164173958E+04  0.18251201004E+04  0.17200000000E+03 0. -1.
         -6    1    1    2    0  501  0.32844203496E+01  0.45786875238E+02  0.61667942025E+03  0.64186036855E+03  0.17200000000E+03 0.  1.
</event>
<event>
 4    1  0.3196149E-002  0.2829963E+03  0.7818608E-02  0.1094064E+00
          2   -1    0    0  502    0  0.00000000000E+00  0.00000000000E+00  0.12877417664E+03  0.12877417664E+03  0.00000000000E+00 0. -1.
         -2   -1    0    0    0  501 -0.00000000000E+00 -0.00000000000E+00 -0.62333743220E+03  0.62333743220E+03  0.00000000000E+00 0.  1.
          6    1    1    2  502    0  0.13338810209E+03 -0.18086054412E+03 -0.22933368157E+03  0.36425383965E+03  0.17200000000E+03 0. -1.
         -6    1    1    2    0  501 -0.13338810209E+03  0.18086054412E+03 -0.26522957399E+03  0.38785776919E+03  0.17200000000E+03 0.  1.
</event>
<event>
 4    1  0.3196149E-002  0.1797126E+03  0.7818608E-02  0.1168081E+00
          1   -1    0    0  502    0  0.00000000000E+00  0.00000000000E+00  0.37139841370E+02  0.37139841370E+02  0.00000000000E+00 0. -1.
         -1   -1    0    0    0  501 -0.00000000000E+00 -0.00000000000E+00 -0.87098389551E+03  0.87098389551E+03  0.00000000000E+00 0.  1.
          6    1    1    2  502    0 -0.82722253951E+01  0.51421622304E+02 -0.39878876593E+03  0.43741181144E+03  0.17200000000E+03 0.  1.
         -6    1    1    2    0  501  0.82722253951E+01 -0.51421622304E+02 -0.43505528821E+03  0.47071192544E+03  0.17200000000E+03 0.  1.
</event>
<event>
 4    1  0.3196149E-002  0.1952619E+03  0.7818608E-02  0.1153799E+00
         -1   -1    0    0    0  501 -0.00000000000E+00  0.00000000000E+00  0.26511534745E+02  0.26511534745E+02  0.00000000000E+00 0.  1.
          1   -1    0    0  502    0  0.00000000000E+00 -0.00000000000E+00 -0.15271561283E+04  0.15271561283E+04  0.00000000000E+00 0. -1.
          6    1    1    2  502    0  0.10432570988E+02  0.91838931459E+02 -0.93787670150E+03  0.95798743994E+03  0.17200000000E+03 0. -1.
         -6    1    1    2    0  501 -0.10432570988E+02 -0.91838931459E+02 -0.56276789205E+03  0.59568022310E+03  0.17200000000E+03 0. -1.
</event>
<event>
 4    1  0.3196149E-002  0.1911036E+03  0.7818608E-02  0.1157470E+00
         -2   -1    0    0    0  501 -0.00000000000E+00  0.00000000000E+00  0.19251833213E+03  0.19251833213E+03  0.00000000000E+00 0.  1.
          2   -1    0    0  502    0  0.00000000000E+00 -0.00000000000E+00 -0.23480467650E+03  0.23480467650E+03  0.00000000000E+00 0. -1.
          6    1    1    2  502    0  0.47637052771E+02 -0.68317482092E+02 -0.11478884387E+03  0.22292834238E+03  0.17200000000E+03 0. -1.
         -6    1    1    2    0  501 -0.47637052771E+02  0.68317482092E+02  0.72502499508E+02  0.20439466625E+03  0.17200000000E+03 0.  1.
</event>
<event>
 4    1  0.3196149E-002  0.1970106E+03  0.7818608E-02  0.1152286E+00
         -2   -1    0    0    0  501 -0.00000000000E+00  0.00000000000E+00  0.18253857095E+02  0.18253857095E+02  0.00000000000E+00 0.  1.
          2   -1    0    0  502    0  0.00000000000E+00 -0.00000000000E+00 -0.26601068639E+04  0.26601068639E+04  0.00000000000E+00 0. -1.
          6    1    1    2  502    0 -0.94269666154E+02  0.18504610802E+02 -0.19208298564E+04  0.19309066595E+04  0.17200000000E+03 0. -1.
         -6    1    1    2    0  501  0.94269666154E+02 -0.18504610802E+02 -0.72102315036E+03  0.74745406142E+03  0.17200000000E+03 0.  1.
</event>
<event>
 4    1  0.3196149E-002  0.1720482E+03  0.7818608E-02  0.1175729E+00
         -2   -1    0    0    0  501 -0.00000000000E+00  0.00000000000E+00  0.12406734858E+02  0.12406734858E+02  0.00000000000E+00 0.  1.
          2   -1    0    0  502    0  0.00000000000E+00 -0.00000000000E+00 -0.24824540228E+04  0.24824540228E+04  0.00000000000E+00 0. -1.
          6    1    1    2  502    0 -0.39948000941E+01  0.78987242097E+00 -0.98894267287E+03  0.10037968881E+04  0.17200000000E+03 0.  1.
         -6    1    1    2    0  501  0.39948000941E+01 -0.78987242097E+00 -0.14811046151E+04  0.14910638695E+04  0.17200000000E+03 0. -1.
</event>
<event>
 4    1  0.3196149E-002  0.2254591E+03  0.7818608E-02  0.1129877E+00
         -1   -1    0    0    0  501 -0.00000000000E+00  0.00000000000E+00  0.10088388735E+04  0.10088388735E+04  0.00000000000E+00 0.  1.
          1   -1    0    0  502    0  0.00000000000E+00 -0.00000000000E+00 -0.85241641648E+02  0.85241641648E+02  0.00000000000E+00 0. -1.
          6    1    1    2  502    0  0.13782126985E+03 -0.47466917702E+02  0.81160450382E+03  0.84233822264E+03  0.17200000000E+03 0.  1.
         -6    1    1    2    0  501 -0.13782126985E+03  0.47466917702E+02  0.11199272801E+03  0.25174229249E+03  0.17200000000E+03 0. -1.
</event>
<event>
 4    1  0.3196149E-002  0.1806422E+03  0.7818608E-02  0.1167183E+00
         -2   -1    0    0    0  501 -0.00000000000E+00  0.00000000000E+00  0.10257319666E+03  0.10257319666E+03  0.00000000000E+00 0.  1.
          2   -1    0    0  502    0  0.00000000000E+00 -0.00000000000E+00 -0.45522899887E+03  0.45522899887E+03  0.00000000000E+00 0. -1.
          6    1    1    2  502    0  0.47538252579E+02 -0.28066139241E+02 -0.32938471714E+03  0.37566725372E+03  0.17200000000E+03 0. -1.
         -6    1    1    2    0  501 -0.47538252579E+02  0.28066139241E+02 -0.23271085072E+02  0.18213494182E+03  0.17200000000E+03 0.  1.
</event>
<event>
 4    1  0.3196149E-002  0.3168976E+03  0.7818608E-02  0.1077086E+00
          4   -1    0    0  502    0  0.00000000000E+00  0.00000000000E+00  0.14299484650E+04  0.14299484650E+04  0.00000000000E+00 0. -1.
         -4   -1    0    0    0  501 -0.00000000000E+00 -0.00000000000E+00 -0.77386195072E+02  0.77386195072E+02  0.00000000000E+00 0.  1.
          6    1    1    2  502    0 -0.12342004859E+03  0.23581262315E+03  0.90548083612E+03  0.95933291730E+03  0.17200000000E+03 0. -1.
         -6    1    1    2    0  501  0.12342004859E+03 -0.23581262315E+03  0.44708143382E+03  0.54800174278E+03  0.17200000000E+03 0.  1.
</event>
<event>
 4    1  0.3196149E-002  0.4187590E+03  0.7818608E-02  0.1037471E+00
          2   -1    0    0  502    0  0.00000000000E+00  0.00000000000E+00  0.31469864056E+04  0.31469864056E+04  0.00000000000E+00 0. -1.
         -2   -1    0    0    0  501 -0.00000000000E+00 -0.00000000000E+00 -0.63755902876E+02  0.63755902876E+02  0.00000000000E+00 0.  1.
          6    1    1    2  502    0  0.33933901737E+03 -0.17499742638E+03  0.21114585245E+04  0.21525836032E+04  0.17200000000E+03 0. -1.
         -6    1    1    2    0  501 -0.33933901737E+03  0.17499742638E+03  0.97177197822E+03  0.10581587053E+04  0.17200000000E+03 0.  1.
</event>
<event>
 4    1  0.3196149E-002  0.1912074E+03  0.7818608E-02  0.1157377E+00
          2   -1    0    0  502    0  0.00000000000E+00  0.00000000000E+00  0.19179279080E+04  0.19179279080E+04  0.00000000000E+00 0. -1.
         -2   -1    0    0    0  501 -0.00000000000E+00 -0.00000000000E+00 -0.22211295957E+02  0.22211295957E+02  0.00000000000E+00 0.  1.
          6    1    1    2  502    0  0.83515068494E+02  0.12252173175E+01  0.13131136517E+04  0.13269618420E+04  0.17200000000E+03 0. -1.
         -6    1    1    2    0  501 -0.83515068494E+02 -0.12252173175E+01  0.58260296032E+03  0.61317736194E+03  0.17200000000E+03 0.  1.
</event>
<event>
 4    1  0.3196149E-002  0.1916354E+03  0.7818608E-02  0.1156995E+00
          1   -1    0    0  502    0  0.00000000000E+00  0.00000000000E+00  0.14092260058E+04  0.14092260058E+04  0.00000000000E+00 0. -1.
         -1   -1    0    0    0  501 -0.00000000000E+00 -0.00000000000E+00 -0.26397819558E+02  0.26397819558E+02  0.00000000000E+00 0.  1.
          6    1    1    2  502    0 -0.82905008286E+02  0.16336815305E+02  0.61018627047E+03  0.63957127562E+03  0.17200000000E+03 0. -1.
         -6    1    1    2    0  501  0.82905008286E+02 -0.16336815305E+02  0.77264191581E+03  0.79605254978E+03  0.17200000000E+03 0.  1.
</event>
<event>
 4    1  0.3196149E-002  0.1752733E+03  0.7818608E-02  0.1172458E+00
          1   -1    0    0  502    0  0.00000000000E+00  0.00000000000E+00  0.27630729643E+03  0.27630729643E+03  0.00000000000E+00 0. -1.
         -1   -1    0    0    0  501 -0.00000000000E+00 -0.00000000000E+00 -0.17708651767E+03  0.17708651767E+03  0.00000000000E+00 0.  1.
          6    1    1    2  502    0 -0.28508415789E+02 -0.17999812934E+02  0.18790541558E+03  0.25696141391E+03  0.17200000000E+03 0. -1.
         -6    1    1    2    0  501  0.28508415789E+02  0.17999812934E+02 -0.88684636816E+02  0.19643240019E+03  0.17200000000E+03 0.  1.
</event>
<event>
 4    1  0.3196149E-002  0.1781495E+03  0.7818608E-02  0.1169606E+00
          2   -1    0    0  502    0  0.00000000000E+00  0.00000000000E+00  0.10904366378E+04  0.10904366378E+04  0.00000000000E+00 0. -1.
         -2   -1    0    0    0  501 -0.00000000000E+00 -0.00000000000E+00 -0.32055808083E+02  0.32055808083E+02  0.00000000000E+00 0.  1.
          6    1    1    2  502    0 -0.64733629834E+00 -0.46398389637E+02  0.69947123744E+03  0.72180138654E+03  0.17200000000E+03 0. -1.
         -6    1    1    2    0  501  0.64733629834E+00  0.46398389637E+02  0.35890959223E+03  0.40069105930E+03  0.17200000000E+03 0.  1.
</event>
<event>
 4    1  0.3196149E-002  0.2687125E+03  0.7818608E-02  0.1102019E+00
         -2   -1    0    0    0  501 -0.00000000000E+00  0.00000000000E+00  0.12718953007E+03  0.12718953007E+03  0.00000000000E+00 0.  1.
          2   -1    0    0  502    0  0.00000000000E+00 -0.00000000000E+00 -0.57303933010E+03  0.57303933010E+03  0.00000000000E+00 0. -1.
          6    1    1    2  502    0  0.17116385233E+03  0.11543550368E+03 -0.25669758940E+03  0.37161818074E+03  0.17200000000E+03 0.  1.
         -6    1    1    2    0  501 -0.17116385233E+03 -0.11543550368E+03 -0.18915221063E+03  0.32861067944E+03  0.17200000000E+03 0.  1.
</event>
<event>
 4    1  0.3196149E-002  0.5235592E+03  0.7818608E-02  0.1007806E+00
         -1   -1    0    0    0  501 -0.00000000000E+00  0.00000000000E+00  0.17278970273E+03  0.17278970273E+03  0.00000000000E+00 0.  1.
          1   -1    0    0  502    0  0.00000000000E+00 -0.00000000000E+00 -0.24076431807E+04  0.24076431807E+04  0.00000000000E+00 0. -1.
          6    1    1    2  502    0 -0.41180567709E+03 -0.27376324917E+03 -0.18709582303E+04  0.19428327081E+04  0.17200000000E+03 0. -1.
         -6    1    1    2    0  501  0.41180567709E+03  0.27376324917E+03 -0.36389524772E+03  0.63760017534E+03  0.17200000000E+03 0.  1.
</event>
<event>
 4    1  0.3196149E-002  0.2278337E+03  0.7818608E-02  0.1128174E+00
          2   -1    0    0  502    0  0.00000000000E+00  0.00000000000E+00  0.40367523686E+03  0.40367523686E+03  0.00000000000E+00 0. -1.
         -2   -1    0    0    0  501 -0.00000000000E+00 -0.00000000000E+00 -0.12989855358E+03  0.12989855358E+03  0.00000000000E+00 0.  1.
          6    1    1    2  502    0 -0.72347848228E+02 -0.13072863632E+03  0.11010115723E+03  0.25304239234E+03  0.17200000000E+03 0. -1.
         -6    1    1    2    0  501  0.72347848228E+02  0.13072863632E+03  0.16367552605E+03  0.28053139811E+03  0.17200000000E+03 0. -1.
</event>
<event>
 4    1  0.3196149E-002  0.1960399E+03  0.7818608E-02  0.1153124E+00
         -1   -1    0    0    0  501 -0.00000000000E+00  0.00000000000E+00  0.39021864400E+02  0.39021864400E+02  0.00000000000E+00 0.  1.
          1   -1    0    0  502    0  0.00000000000E+00 -0.00000000000E+00 -0.11599988385E+04  0.11599988385E+04  0.00000000000E+00 0. -1.
          6    1    1    2  502    0  0.93022918826E+02 -0.13942219182E+02 -0.32755021243E+03  0.38173392640E+03  0.17200000000E+03 0.  1.
         -6    1    1    2    0  501 -0.93022918826E+02  0.13942219182E+02 -0.79342676164E+03  0.81728677646E+03  0.17200000000E+03 0. -1.
</event>
<event>
 4    1  0.3196149E-002  0.4387363E+03  0.7818608E-02  0.1031135E+00
         -1   -1    0    0    0  501 -0.00000000000E+00  0.00000000000E+00  0.14058695962E+04  0.14058695962E+04  0.00000000000E+00 0.  1.
          1   -1    0    0  502    0  0.00000000000E+00 -0.00000000000E+00 -0.14373106491E+03  0.14373106491E+03  0.00000000000E+00 0. -1.
          6    1    1    2  502    0  0.33402912316E+03 -0.22656150450E+03  0.79975155324E+03  0.91219083385E+03  0.17200000000E+03 0. -1.
         -6    1    1    2    0  501 -0.33402912316E+03  0.22656150450E+03  0.46238697809E+03  0.63740982731E+03  0.17200000000E+03 0. -1.
</event>
<event>
 4    1  0.3196149E-002  0.1787125E+03  0.7818608E-02  0.1169055E+00
         -1   -1    0    0    0  501 -0.00000000000E+00  0.00000000000E+00  0.13602173604E+04  0.13602173604E+04  0.00000000000E+00 0.  1.
          1   -1    0    0  502    0  0.00000000000E+00 -0.00000000000E+00 -0.26704427830E+02  0.26704427830E+02  0.00000000000E+00 0. -1.
          6    1    1    2  502    0  0.19713326676E+02  0.44334237227E+02  0.90771647585E+03  0.92514179474E+03  0.17200000000E+03 0.  1.
         -6    1    1    2    0  501 -0.19713326676E+02 -0.44334237227E+02  0.42579645676E+03  0.46177999354E+03  0.17200000000E+03 0. -1.
</event>
<event>
 4    1  0.3196149E-002  0.2609602E+03  0.7818608E-02  0.1106568E+00
          2   -1    0    0  502    0  0.00000000000E+00  0.00000000000E+00  0.11428629397E+04  0.11428629397E+04  0.00000000000E+00 0. -1.
         -2   -1    0    0    0  501 -0.00000000000E+00 -0.00000000000E+00 -0.90684495171E+02  0.90684495171E+02  0.00000000000E+00 0.  1.
          6    1    1    2  502    0 -0.10882631871E+03 -0.16331881968E+03  0.88726566237E+03  0.92484623594E+03  0.17200000000E+03 0. -1.
         -6    1    1    2    0  501  0.10882631871E+03  0.16331881968E+03  0.16491278216E+03  0.30870119894E+03  0.17200000000E+03 0.  1.
</event>
<event>
 4    1  0.3196149E-002  0.2384191E+03  0.7818608E-02  0.1120850E+00
          2   -1    0    0  502    0  0.00000000000E+00  0.00000000000E+00  0.10368036348E+04  0.10368036348E+04  0.00000000000E+00 0. -1.
         -2   -1    0    0    0  501 -0.00000000000E+00 -0.00000000000E+00 -0.48411414141E+03  0.48411414141E+03  0.00000000000E+00 0.  1.
          6    1    1    2  502    0 -0.11987765779E+03 -0.11352981749E+03 -0.43975968597E+03  0.50023219978E+03  0.17200000000E+03 0.  1.
         -6    1    1    2    0  501  0.11987765779E+03  0.11352981749E+03  0.99244917935E+03  0.10206855764E+04  0.17200000000E+03 0. -1.
</event>
<event>
 4    1  0.3196149E-002  0.1792822E+03  0.7818608E-02  0.1168500E+00
          2   -1    0    0  502    0  0.00000000000E+00  0.00000000000E+00  0.11326699151E+04  0.11326699151E+04  0.00000000000E+00 0. -1.
         -2   -1    0    0    0  501 -0.00000000000E+00 -0.00000000000E+00 -0.33264096978E+02  0.33264096978E+02  0.00000000000E+00 0.  1.
          6    1    1    2  502    0 -0.41250313121E+02 -0.29266498099E+02  0.77314663587E+03  0.79366103394E+03  0.17200000000E+03 0. -1.
         -6    1    1    2    0  501  0.41250313121E+02  0.29266498099E+02  0.32625918223E+03  0.37227297811E+03  0.17200000000E+03 0.  1.
</event>
<event>
 4    1  0.3196149E-002  0.3192045E+03  0.7818608E-02  0.1076016E+00
          1   -1    0    0  502    0  0.00000000000E+00  0.00000000000E+00  0.10055551603E+04  0.10055551603E+04  0.00000000000E+00 0. -1.
         -1   -1    0    0    0  501 -0.00000000000E+00 -0.00000000000E+00 -0.33482899503E+03  0.33482899503E+03  0.00000000000E+00 0.  1.
          6    1    1    2  502    0  0.17743524316E+03 -0.20205013984E+03  0.89503245890E+03  0.95024977086E+03  0.17200000000E+03 0. -1.
         -6    1    1    2    0  501 -0.17743524316E+03  0.20205013984E+03 -0.22430629368E+03  0.39013438442E+03  0.17200000000E+03 0.  1.
</event>
<event>
 4    1  0.3196149E-002  0.5311134E+03  0.7818608E-02  0.1005962E+00
         -4   -1    0    0    0  501 -0.00000000000E+00  0.00000000000E+00  0.15662865199E+03  0.15662865199E+03  0.00000000000E+00 0.  1.
          4   -1    0    0  502    0  0.00000000000E+00 -0.00000000000E+00 -0.19830731682E+04  0.19830731682E+04  0.00000000000E+00 0. -1.
          6    1    1    2  502    0 -0.29036265756E+02 -0.50165160709E+03 -0.12374337116E+04  0.13465970556E+04  0.17200000000E+03 0. -1.
         -6    1    1    2    0  501  0.29036265756E+02  0.50165160709E+03 -0.58901080462E+03  0.79310476457E+03  0.17200000000E+03 0.  1.
</event>
<event>
 4    1  0.3196149E-002  0.2432822E+03  0.7818608E-02  0.1117625E+00
         -2   -1    0    0    0  501 -0.00000000000E+00  0.00000000000E+00  0.36799968122E+03  0.36799968122E+03  0.00000000000E+00 0.  1.
          2   -1    0    0  502    0  0.00000000000E+00 -0.00000000000E+00 -0.21225910845E+03  0.21225910845E+03  0.00000000000E+00 0. -1.
          6    1    1    2  502    0  0.17170360822E+03 -0.10958174346E+02 -0.64938073513E+02  0.25179984919E+03  0.17200000000E+03 0. -1.
         -6    1    1    2    0  501 -0.17170360822E+03  0.10958174346E+02  0.22067864628E+03  0.32845894048E+03  0.17200000000E+03 0.  1.
</event>
<event>
 4    1  0.3196149E-002  0.2688616E+03  0.7818608E-02  0.1101933E+00
          1   -1    0    0  502    0  0.00000000000E+00  0.00000000000E+00  0.32548241400E+03  0.32548241400E+03  0.00000000000E+00 0. -1.
         -1   -1    0    0    0  501 -0.00000000000E+00 -0.00000000000E+00 -0.31731665307E+03  0.31731665307E+03  0.00000000000E+00 0.  1.
          6    1    1    2  502    0  0.17993852791E+03 -0.10161052492E+03  0.18014940270E+03  0.32363618446E+03  0.17200000000E+03 0. -1.
         -6    1    1    2    0  501 -0.17993852791E+03  0.10161052492E+03 -0.17198364177E+03  0.31916288261E+03  0.17200000000E+03 0.  1.
</event>
<event>
 4    1  0.3196149E-002  0.3702473E+03  0.7818608E-02  0.1054598E+00
          2   -1    0    0  502    0  0.00000000000E+00  0.00000000000E+00  0.42297217063E+04  0.42297217063E+04  0.00000000000E+00 0. -1.
         -2   -1    0    0    0  501 -0.00000000000E+00 -0.00000000000E+00 -0.33407481826E+02  0.33407481826E+02  0.00000000000E+00 0.  1.
          6    1    1    2  502    0 -0.30720740847E+03  0.11455414174E+03  0.24665779976E+04  0.24942113105E+04  0.17200000000E+03 0. -1.
         -6    1    1    2    0  501  0.30720740847E+03 -0.11455414174E+03  0.17297362269E+04  0.17689178776E+04  0.17200000000E+03 0.  1.
</event>
<event>
 4    1  0.3196149E-002  0.1743229E+03  0.7818608E-02  0.1173413E+00
         -1   -1    0    0    0  501 -0.00000000000E+00  0.00000000000E+00  0.52061368631E+02  0.52061368631E+02  0.00000000000E+00 0.  1.
          1   -1    0    0  502    0  0.00000000000E+00 -0.00000000000E+00 -0.58387521512E+03  0.58387521512E+03  0.00000000000E+00 0. -1.
          6    1    1    2  502    0  0.28360614713E+02 -0.38162282285E+00 -0.27133935200E+03  0.32251126189E+03  0.17200000000E+03 0. -1.
         -6    1    1    2    0  501 -0.28360614713E+02  0.38162282285E+00 -0.26047449448E+03  0.31342532185E+03  0.17200000000E+03 0. -1.
</event>
<event>
 4    1  0.3196149E-002  0.1871301E+03  0.7818608E-02  0.1161076E+00
         -1   -1    0    0    0  501 -0.00000000000E+00  0.00000000000E+00  0.35117807981E+02  0.35117807981E+02  0.00000000000E+00 0.  1.
          1   -1    0    0  502    0  0.00000000000E+00 -0.00000000000E+00 -0.10638484396E+04  0.10638484396E+04  0.00000000000E+00 0. -1.
          6    1    1    2  502    0 -0.16033102171E+02 -0.71948784113E+02 -0.65195171268E+03  0.67827628852E+03  0.17200000000E+03 0. -1.
         -6    1    1    2    0  501  0.16033102171E+02  0.71948784113E+02 -0.37677891895E+03  0.42068995908E+03  0.17200000000E+03 0.  1.
</event>
<event>
 4    1  0.3196149E-002  0.2837146E+03  0.7818608E-02  0.1093677E+00
          2   -1    0    0  502    0  0.00000000000E+00  0.00000000000E+00  0.46818520216E+03  0.46818520216E+03  0.00000000000E+00 0. -1.
         -2   -1    0    0    0  501 -0.00000000000E+00 -0.00000000000E+00 -0.52787416592E+03  0.52787416592E+03  0.00000000000E+00 0.  1.
          6    1    1    2  502    0  0.21685546728E+03  0.62319367950E+02  0.37911697316E+03  0.47352262528E+03  0.17200000000E+03 0. -1.
         -6    1    1    2    0  501 -0.21685546728E+03 -0.62319367950E+02 -0.43880593692E+03  0.52253674281E+03  0.17200000000E+03 0.  1.
</event>
<event>
 4    1  0.3196149E-002  0.2355769E+03  0.7818608E-02  0.1122775E+00
          2   -1    0    0  502    0  0.00000000000E+00  0.00000000000E+00  0.29943862574E+04  0.29943862574E+04  0.00000000000E+00 0. -1.
         -2   -1    0    0    0  501 -0.00000000000E+00 -0.00000000000E+00 -0.28737915688E+02  0.28737915688E+02  0.00000000000E+00 0.  1.
          6    1    1    2  502    0 -0.13464923733E+03  0.88215948855E+02  0.23835494163E+04  0.23951626856E+04  0.17200000000E+03 0.  1.
         -6    1    1    2    0  501  0.13464923733E+03 -0.88215948855E+02  0.58209892538E+03  0.62796148741E+03  0.17200000000E+03 0.  1.
</event>
<event>
 4    1  0.3196149E-002  0.2258614E+03  0.7818608E-02  0.1129587E+00
          1   -1    0    0  502    0  0.00000000000E+00  0.00000000000E+00  0.30886061325E+03  0.30886061325E+03  0.00000000000E+00 0. -1.
         -1   -1    0    0    0  501 -0.00000000000E+00 -0.00000000000E+00 -0.16918237454E+03  0.16918237454E+03  0.00000000000E+00 0.  1.
          6    1    1    2  502    0 -0.32553175091E+01 -0.14635150551E+03  0.10666567143E+03  0.24978175618E+03  0.17200000000E+03 0. -1.
         -6    1    1    2    0  501  0.32553175091E+01  0.14635150551E+03  0.33012567280E+02  0.22826123161E+03  0.17200000000E+03 0. -1.
</event>
<event>
 4    1  0.3196149E-002  0.1772059E+03  0.7818608E-02  0.1170535E+00
          3   -1    0    0  502    0  0.00000000000E+00  0.00000000000E+00  0.30152772934E+03  0.30152772934E+03  0.00000000000E+00 0. -1.
         -3   -1    0    0    0  501 -0.00000000000E+00 -0.00000000000E+00 -0.23461135970E+03  0.23461135970E+03  0.00000000000E+00 0.  1.
          6    1    1    2  502    0  0.42568851500E+02  0.24139499038E+01 -0.16644786381E+03  0.24311895368E+03  0.17200000000E+03 0.  1.
         -6    1    1    2    0  501 -0.42568851500E+02 -0.24139499038E+01  0.23336423345E+03  0.29302013536E+03  0.17200000000E+03 0. -1.
</event>
<event>
 4    1  0.3196149E-002  0.2147008E+03  0.7818608E-02  0.1137897E+00
          2   -1    0    0  502    0  0.00000000000E+00  0.00000000000E+00  0.37088838902E+02  0.37088838902E+02  0.00000000000E+00 0. -1.
         -2   -1    0    0    0  501 -0.00000000000E+00 -0.00000000000E+00 -0.16880341883E+04  0.16880341883E+04  0.00000000000E+00 0.  1.
          6    1    1    2  502    0  0.53954888502E+02 -0.11662463642E+03 -0.12684299052E+04  0.12864722540E+04  0.17200000000E+03 0.  1.
         -6    1    1    2    0  501 -0.53954888502E+02  0.11662463642E+03 -0.38251544421E+03  0.43865077325E+03  0.17200000000E+03 0. -1.
</event>
<event>
 4    1  0.3196149E-002  0.2394614E+03  0.7818608E-02  0.1120152E+00
         -2   -1    0    0    0  501 -0.00000000000E+00  0.00000000000E+00  0.34431257706E+03  0.34431257706E+03  0.00000000000E+00 0.  1.
          2   -1    0    0  502    0  0.00000000000E+00 -0.00000000000E+00 -0.31326644763E+03  0.31326644763E+03  0.00000000000E+00 0. -1.
          6    1    1    2  502    0  0.75882909271E+02  0.14832247860E+03 -0.20949397210E+03  0.31816583399E+03  0.17200000000E+03 0. -1.
         -6    1    1    2    0  501 -0.75882909271E+02 -0.14832247860E+03  0.24054010153E+03  0.33941319070E+03  0.17200000000E+03 0.  1.
</event>
<event>
 4    1  0.3196149E-002  0.1802720E+03  0.7818608E-02  0.1167540E+00
          1   -1    0    0  502    0  0.00000000000E+00  0.00000000000E+00  0.80187229396E+03  0.80187229396E+03  0.00000000000E+00 0. -1.
         -1   -1    0    0    0  501 -0.00000000000E+00 -0.00000000000E+00 -0.48296781493E+02  0.48296781493E+02  0.00000000000E+00 0.  1.
          6    1    1    2  502    0  0.10059074244E+02 -0.53036083355E+02  0.54727898867E+03  0.57620508723E+03  0.17200000000E+03 0. -1.
         -6    1    1    2    0  501 -0.10059074244E+02  0.53036083355E+02  0.20629652381E+03  0.27396398823E+03  0.17200000000E+03 0.  1.
</event>
<event>
 4    1  0.3196149E-002  0.6552752E+03  0.7818608E-02  0.9796931E-01
         -2   -1    0    0    0  501 -0.00000000000E+00  0.00000000000E+00  0.12443510709E+04  0.12443510709E+04  0.00000000000E+00 0.  1.
          2   -1    0    0  502    0  0.00000000000E+00 -0.00000000000E+00 -0.48444439233E+03  0.48444439233E+03  0.00000000000E+00 0. -1.
          6    1    1    2  502    0 -0.22935081522E+03 -0.58923656423E+03 -0.83692668516E+02  0.66059820453E+03  0.17200000000E+03 0. -1.
         -6    1    1    2    0  501  0.22935081522E+03  0.58923656423E+03  0.84359934705E+03  0.10681972587E+04  0.17200000000E+03 0.  1.
</event>
<event>
 4    1  0.3196149E-002  0.1872078E+03  0.7818608E-02  0.1161004E+00
         -2   -1    0    0    0  501 -0.00000000000E+00  0.00000000000E+00  0.35673404787E+02  0.35673404787E+02  0.00000000000E+00 0.  1.
          2   -1    0    0  502    0  0.00000000000E+00 -0.00000000000E+00 -0.11172250639E+04  0.11172250639E+04  0.00000000000E+00 0. -1.
          6    1    1    2  502    0  0.72707366312E+02 -0.13282006811E+02 -0.34054960276E+03  0.38861395338E+03  0.17200000000E+03 0.  1.
         -6    1    1    2    0  501 -0.72707366312E+02  0.13282006811E+02 -0.74100205635E+03  0.76428451530E+03  0.17200000000E+03 0. -1.
</event>
<event>
 4    1  0.3196149E-002  0.4075799E+03  0.7818608E-02  0.1041186E+00
         -2   -1    0    0    0  501 -0.00000000000E+00  0.00000000000E+00  0.14899168346E+03  0.14899168346E+03  0.00000000000E+00 0.  1.
          2   -1    0    0  502    0  0.00000000000E+00 -0.00000000000E+00 -0.12579196543E+04  0.12579196543E+04  0.00000000000E+00 0. -1.
          6    1    1    2  502    0  0.16731360044E+03  0.32945949705E+03 -0.31732641220E+03  0.51654375707E+03  0.17200000000E+03 0. -1.
         -6    1    1    2    0  501 -0.16731360044E+03 -0.32945949705E+03 -0.79160155860E+03  0.89036758065E+03  0.17200000000E+03 0.  1.
</event>
<event>
 4    1  0.3196149E-002  0.1882756E+03  0.7818608E-02  0.1160026E+00
          2   -1    0    0  502    0  0.00000000000E+00  0.00000000000E+00  0.37501533727E+03  0.37501533727E+03  0.00000000000E+00 0. -1.
         -2   -1    0    0    0  501 -0.00000000000E+00 -0.00000000000E+00 -0.10046946553E+03  0.10046946553E+03  0.00000000000E+00 0.  1.
          6    1    1    2  502    0 -0.57173484057E+02 -0.50939930390E+02  0.19511029196E+03  0.27113780595E+03  0.17200000000E+03 0. -1.
         -6    1    1    2    0  501  0.57173484057E+02  0.50939930390E+02  0.79435579779E+02  0.20434699685E+03  0.17200000000E+03 0.  1.
</event>
<event>
 4    1  0.3196149E-002  0.2248305E+03  0.7818608E-02  0.1130332E+00
         -1   -1    0    0    0  501 -0.00000000000E+00  0.00000000000E+00  0.32910852954E+02  0.32910852954E+02  0.00000000000E+00 0.  1.
          1   -1    0    0  502    0  0.00000000000E+00 -0.00000000000E+00 -0.16777610665E+04  0.16777610665E+04  0.00000000000E+00 0. -1.
          6    1    1    2  502    0  0.83535368919E+02 -0.11826484829E+03 -0.10711154656E+04  0.10944574331E+04  0.17200000000E+03 0. -1.
         -6    1    1    2    0  501 -0.83535368919E+02  0.11826484829E+03 -0.57373474795E+03  0.61621448637E+03  0.17200000000E+03 0.  1.
</event>
<event>
 4    1  0.3196149E-002  0.3818764E+03  0.7818608E-02  0.1050242E+00
         -1   -1    0    0    0  501 -0.00000000000E+00  0.00000000000E+00  0.21016515969E+04  0.21016515969E+04  0.00000000000E+00 0.  1.
          1   -1    0    0  502    0  0.00000000000E+00 -0.00000000000E+00 -0.70737518150E+02  0.70737518150E+02  0.00000000000E+00 0. -1.
          6    1    1    2  502    0 -0.18080018115E+03 -0.28906208502E+03  0.11654798382E+04  0.12264472462E+04  0.17200000000E+03 0. -1.
         -6    1    1    2    0  501  0.18080018115E+03  0.28906208502E+03  0.86543424062E+03  0.94594186891E+03  0.17200000000E+03 0. -1.
</event>
<event>
 4    1  0.3196149E-002  0.2342953E+03  0.7818608E-02  0.1123653E+00
         -4   -1    0    0    0  501 -0.00000000000E+00  0.00000000000E+00  0.76492646234E+02  0.76492646234E+02  0.00000000000E+00 0.  1.
          4   -1    0    0  502    0  0.00000000000E+00 -0.00000000000E+00 -0.75702073463E+03  0.75702073463E+03  0.00000000000E+00 0. -1.
          6    1    1    2  502    0 -0.59021767205E+02 -0.14773870776E+03 -0.24521176902E+03  0.33915056603E+03  0.17200000000E+03 0.  1.
         -6    1    1    2    0  501  0.59021767205E+02  0.14773870776E+03 -0.43531631938E+03  0.49436281483E+03  0.17200000000E+03 0. -1.
</event>
<event>
 4    1  0.3196149E-002  0.3351229E+03  0.7818608E-02  0.1068892E+00
          2   -1    0    0  502    0  0.00000000000E+00  0.00000000000E+00  0.16166717408E+04  0.16166717408E+04  0.00000000000E+00 0. -1.
         -2   -1    0    0    0  501 -0.00000000000E+00 -0.00000000000E+00 -0.12905105247E+03  0.12905105247E+03  0.00000000000E+00 0.  1.
          6    1    1    2  502    0  0.16131220591E+03  0.23812120887E+03  0.13369063739E+04  0.13782692010E+04  0.17200000000E+03 0. -1.
         -6    1    1    2    0  501 -0.16131220591E+03 -0.23812120887E+03  0.15071431442E+03  0.36745359225E+03  0.17200000000E+03 0.  1.
</event>
<event>
 4    1  0.3196149E-002  0.1846293E+03  0.7818608E-02  0.1163396E+00
          1   -1    0    0  502    0  0.00000000000E+00  0.00000000000E+00  0.19536281115E+03  0.19536281115E+03  0.00000000000E+00 0. -1.
         -1   -1    0    0    0  501 -0.00000000000E+00 -0.00000000000E+00 -0.39594435409E+03  0.39594435409E+03  0.00000000000E+00 0.  1.
          6    1    1    2  502    0  0.16162369210E+02  0.65136509247E+02  0.12082134750E+03  0.22064855546E+03  0.17200000000E+03 0. -1.
         -6    1    1    2    0  501 -0.16162369210E+02 -0.65136509247E+02 -0.32140289044E+03  0.37065860977E+03  0.17200000000E+03 0.  1.
</event>
<event>
 4    1  0.3196149E-002  0.2112319E+03  0.7818608E-02  0.1140594E+00
          2   -1    0    0  502    0  0.00000000000E+00  0.00000000000E+00  0.52517877860E+03  0.52517877860E+03  0.00000000000E+00 0. -1.
         -2   -1    0    0    0  501 -0.00000000000E+00 -0.00000000000E+00 -0.85024223456E+02  0.85024223456E+02  0.00000000000E+00 0.  1.
          6    1    1    2  502    0 -0.11142120200E+03 -0.51188275460E+02  0.21165904872E+03  0.29902922383E+03  0.17200000000E+03 0. -1.
         -6    1    1    2    0  501  0.11142120200E+03  0.51188275460E+02  0.22849550642E+03  0.31117377823E+03  0.17200000000E+03 0.  1.
</event>
<event>
 4    1  0.3196149E-002  0.1928922E+03  0.7818608E-02  0.1155878E+00
         -2   -1    0    0    0  501 -0.00000000000E+00  0.00000000000E+00  0.46844223777E+03  0.46844223777E+03  0.00000000000E+00 0.  1.
          2   -1    0    0  502    0  0.00000000000E+00 -0.00000000000E+00 -0.18865760763E+03  0.18865760763E+03  0.00000000000E+00 0. -1.
          6    1    1    2  502    0  0.80227254349E+02 -0.34452574044E+02 -0.11010454580E+03  0.22210448713E+03  0.17200000000E+03 0. -1.
         -6    1    1    2    0  501 -0.80227254349E+02  0.34452574044E+02  0.38988917594E+03  0.43499535827E+03  0.17200000000E+03 0.  1.
</event>
<event>
 4    1  0.3196149E-002  0.6355249E+03  0.7818608E-02  0.9834326E-01
          2   -1    0    0  502    0  0.00000000000E+00  0.00000000000E+00  0.72140902093E+03  0.72140902093E+03  0.00000000000E+00 0. -1.
         -2   -1    0    0    0  501 -0.00000000000E+00 -0.00000000000E+00 -0.58303933380E+03  0.58303933380E+03  0.00000000000E+00 0.  1.
          6    1    1    2  502    0 -0.58272302386E+03 -0.18639151893E+03  0.19921624005E+03  0.66601729044E+03  0.17200000000E+03 0. -1.
         -6    1    1    2    0  501  0.58272302386E+03  0.18639151893E+03 -0.60846552915E+02  0.63843106430E+03  0.17200000000E+03 0.  1.
</event>
<event>
 4    1  0.3196149E-002  0.1762244E+03  0.7818608E-02  0.1171508E+00
         -1   -1    0    0    0  501 -0.00000000000E+00  0.00000000000E+00  0.83497241075E+02  0.83497241075E+02  0.00000000000E+00 0.  1.
          1   -1    0    0  502    0  0.00000000000E+00 -0.00000000000E+00 -0.11391175991E+04  0.11391175991E+04  0.00000000000E+00 0. -1.
          6    1    1    2  502    0 -0.15967143949E+02  0.34872443795E+02 -0.10294898293E+04  0.10444636641E+04  0.17200000000E+03 0. -1.
         -6    1    1    2    0  501  0.15967143949E+02 -0.34872443795E+02 -0.26130528796E+02  0.17815117613E+03  0.17200000000E+03 0.  1.
</event>
<event>
 4    1  0.3196149E-002  0.1983924E+03  0.7818608E-02  0.1151102E+00
          2   -1    0    0  502    0  0.00000000000E+00  0.00000000000E+00  0.74241638270E+03  0.74241638270E+03  0.00000000000E+00 0. -1.
         -2   -1    0    0    0  501 -0.00000000000E+00 -0.00000000000E+00 -0.58851425481E+02  0.58851425481E+02  0.00000000000E+00 0.  1.
          6    1    1    2  502    0 -0.77972637464E+02 -0.60793289749E+02  0.46794345757E+03  0.50826236901E+03  0.17200000000E+03 0. -1.
         -6    1    1    2    0  501  0.77972637464E+02  0.60793289749E+02  0.21562149965E+03  0.29300543917E+03  0.17200000000E+03 0.  1.
</event>
<event>
 4    1  0.3196149E-002  0.2093993E+03  0.7818608E-02  0.1142043E+00
         -2   -1    0    0    0  501 -0.00000000000E+00  0.00000000000E+00  0.42268173518E+03  0.42268173518E+03  0.00000000000E+00 0.  1.
          2   -1    0    0  502    0  0.00000000000E+00 -0.00000000000E+00 -0.13038842789E+03  0.13038842789E+03  0.00000000000E+00 0. -1.
          6    1    1    2  502    0  0.11657967986E+03 -0.25947337130E+02  0.21125302931E+02  0.21046226380E+03  0.17200000000E+03 0. -1.
         -6    1    1    2    0  501 -0.11657967986E+03  0.25947337130E+02  0.27116800436E+03  0.34260789928E+03  0.17200000000E+03 0.  1.
</event>
<event>
 4    1  0.3196149E-002  0.4203921E+03  0.7818608E-02  0.1036939E+00
         -1   -1    0    0    0  501 -0.00000000000E+00  0.00000000000E+00  0.12758274972E+03  0.12758274972E+03  0.00000000000E+00 0.  1.
          1   -1    0    0  502    0  0.00000000000E+00 -0.00000000000E+00 -0.15466392299E+04  0.15466392299E+04  0.00000000000E+00 0. -1.
          6    1    1    2  502    0  0.32559177085E+03  0.20281890383E+03 -0.97996965972E+03  0.10663348644E+04  0.17200000000E+03 0. -1.
         -6    1    1    2    0  501 -0.32559177085E+03 -0.20281890383E+03 -0.43908682047E+03  0.60788711526E+03  0.17200000000E+03 0.  1.
</event>
<event>
 4    1  0.3196149E-002  0.1737271E+03  0.7818608E-02  0.1174016E+00
          2   -1    0    0  502    0  0.00000000000E+00  0.00000000000E+00  0.15102671970E+04  0.15102671970E+04  0.00000000000E+00 0. -1.
         -2   -1    0    0    0  501 -0.00000000000E+00 -0.00000000000E+00 -0.20595780102E+02  0.20595780102E+02  0.00000000000E+00 0.  1.
          6    1    1    2  502    0  0.56297247304E+01 -0.23778065388E+02  0.87676338123E+03  0.89380932914E+03  0.17200000000E+03 0. -1.
         -6    1    1    2    0  501 -0.56297247304E+01  0.23778065388E+02  0.61290803569E+03  0.63705364798E+03  0.17200000000E+03 0. -1.
</event>
<event>
 4    1  0.3196149E-002  0.1754037E+03  0.7818608E-02  0.1172327E+00
          3   -1    0    0  502    0  0.00000000000E+00  0.00000000000E+00  0.35359887583E+03  0.35359887583E+03  0.00000000000E+00 0. -1.
         -3   -1    0    0    0  501 -0.00000000000E+00 -0.00000000000E+00 -0.98739636909E+02  0.98739636909E+02  0.00000000000E+00 0.  1.
          6    1    1    2  502    0 -0.33549403969E+02  0.75435226508E+01  0.20538373370E+03  0.27009062425E+03  0.17200000000E+03 0. -1.
         -6    1    1    2    0  501  0.33549403969E+02 -0.75435226508E+01  0.49475505222E+02  0.18224788849E+03  0.17200000000E+03 0.  1.
</event>
<event>
 4    1  0.3196149E-002  0.3253884E+03  0.7818608E-02  0.1073196E+00
          2   -1    0    0  502    0  0.00000000000E+00  0.00000000000E+00  0.28333906052E+04  0.28333906052E+04  0.00000000000E+00 0. -1.
         -2   -1    0    0    0  501 -0.00000000000E+00 -0.00000000000E+00 -0.56189504263E+02  0.56189504263E+02  0.00000000000E+00 0.  1.
          6    1    1    2  502    0  0.24291237996E+02  0.27514273291E+03  0.22247936085E+04  0.22484626277E+04  0.17200000000E+03 0. -1.
         -6    1    1    2    0  501 -0.24291237996E+02 -0.27514273291E+03  0.55240749238E+03  0.64111748171E+03  0.17200000000E+03 0.  1.
</event>
<event>
 4    1  0.3196149E-002  0.1998986E+03  0.7818608E-02  0.1149825E+00
          1   -1    0    0  502    0  0.00000000000E+00  0.00000000000E+00  0.56180907973E+03  0.56180907973E+03  0.00000000000E+00 0. -1.
         -1   -1    0    0    0  501 -0.00000000000E+00 -0.00000000000E+00 -0.88320136960E+02  0.88320136960E+02  0.00000000000E+00 0.  1.
          6    1    1    2  502    0  0.76747395872E+02  0.66972413864E+02  0.38016943321E+03  0.42952097148E+03  0.17200000000E+03 0. -1.
         -6    1    1    2    0  501 -0.76747395872E+02 -0.66972413864E+02  0.93319509562E+02  0.22060824521E+03  0.17200000000E+03 0.  1.
</event>
<event>
 4    1  0.3196149E-002  0.2936333E+03  0.7818608E-02  0.1088467E+00
          2   -1    0    0  502    0  0.00000000000E+00  0.00000000000E+00  0.19434930201E+04  0.19434930201E+04  0.00000000000E+00 0. -1.
         -2   -1    0    0    0  501 -0.00000000000E+00 -0.00000000000E+00 -0.46163936002E+02  0.46163936002E+02  0.00000000000E+00 0.  1.
          6    1    1    2  502    0 -0.49178711173E+02  0.23284746252E+03  0.11451203715E+04  0.11821679880E+04  0.17200000000E+03 0. -1.
         -6    1    1    2    0  501  0.49178711173E+02 -0.23284746252E+03  0.75220871259E+03  0.80748896818E+03  0.17200000000E+03 0.  1.
</event>
<event>
 4    1  0.3196149E-002  0.1954390E+03  0.7818608E-02  0.1153645E+00
         -2   -1    0    0    0  501 -0.00000000000E+00  0.00000000000E+00  0.84078917646E+02  0.84078917646E+02  0.00000000000E+00 0.  1.
          2   -1    0    0  502    0  0.00000000000E+00 -0.00000000000E+00 -0.69177100069E+03  0.69177100069E+03  0.00000000000E+00 0. -1.
          6    1    1    2  502    0  0.72879835495E+02  0.57453780327E+02 -0.53113526910E+03  0.56595148324E+03  0.17200000000E+03 0. -1.
         -6    1    1    2    0  501 -0.72879835495E+02 -0.57453780327E+02 -0.76556813942E+02  0.20989843510E+03  0.17200000000E+03 0.  1.
</event>
<event>
 4    1  0.3196149E-002  0.2954088E+03  0.7818608E-02  0.1087558E+00
          2   -1    0    0  502    0  0.00000000000E+00  0.00000000000E+00  0.15617012996E+04  0.15617012996E+04  0.00000000000E+00 0. -1.
         -2   -1    0    0    0  501 -0.00000000000E+00 -0.00000000000E+00 -0.31011128673E+03  0.31011128673E+03  0.00000000000E+00 0.  1.
          6    1    1    2  502    0 -0.16412819450E+03 -0.17534058273E+03  0.14731958475E+04  0.15025220096E+04  0.17200000000E+03 0. -1.
         -6    1    1    2    0  501  0.16412819450E+03  0.17534058273E+03 -0.22160583459E+03  0.36929057679E+03  0.17200000000E+03 0.  1.
</event>
<event>
 4    1  0.3196149E-002  0.2797338E+03  0.7818608E-02  0.1095834E+00
         -2   -1    0    0    0  501 -0.00000000000E+00  0.00000000000E+00  0.26105674739E+03  0.26105674739E+03  0.00000000000E+00 0.  1.
          2   -1    0    0  502    0  0.00000000000E+00 -0.00000000000E+00 -0.30422453429E+03  0.30422453429E+03  0.00000000000E+00 0. -1.
          6    1    1    2  502    0  0.16859894345E+03 -0.14227225402E+03  0.12704964895E+02  0.28002216721E+03  0.17200000000E+03 0. -1.
         -6    1    1    2    0  501 -0.16859894345E+03  0.14227225402E+03 -0.55872751791E+02  0.28525911447E+03  0.17200000000E+03 0.  1.
</event>
<event>
 4    1  0.3196149E-002  0.5234794E+03  0.7818608E-02  0.1007826E+00
          2   -1    0    0  502    0  0.00000000000E+00  0.00000000000E+00  0.10090730104E+04  0.10090730104E+04  0.00000000000E+00 0. -1.
         -2   -1    0    0    0  501 -0.00000000000E+00 -0.00000000000E+00 -0.81740622429E+03  0.81740622429E+03  0.00000000000E+00 0.  1.
          6    1    1    2  502    0  0.24389699803E+03 -0.43007090165E+03  0.84210724366E+03  0.99155198347E+03  0.17200000000E+03 0. -1.
         -6    1    1    2    0  501 -0.24389699803E+03  0.43007090165E+03 -0.65044045752E+03  0.83492725125E+03  0.17200000000E+03 0.  1.
</event>
<event>
 4    1  0.3196149E-002  0.2063432E+03  0.7818608E-02  0.1144495E+00
          2   -1    0    0  502    0  0.00000000000E+00  0.00000000000E+00  0.57663648087E+03  0.57663648087E+03  0.00000000000E+00 0. -1.
         -2   -1    0    0    0  501 -0.00000000000E+00 -0.00000000000E+00 -0.12938477411E+03  0.12938477411E+03  0.00000000000E+00 0.  1.
          6    1    1    2  502    0 -0.97921319294E+02  0.58351687056E+02  0.45492649515E+03  0.49953540430E+03  0.17200000000E+03 0. -1.
         -6    1    1    2    0  501  0.97921319294E+02 -0.58351687056E+02 -0.76747883928E+01  0.20648585068E+03  0.17200000000E+03 0.  1.
</event>
<event>
 4    1  0.3196149E-002  0.1959029E+03  0.7818608E-02  0.1153243E+00
         -3   -1    0    0    0  501 -0.00000000000E+00  0.00000000000E+00  0.46746333115E+03  0.46746333115E+03  0.00000000000E+00 0.  1.
          3   -1    0    0  502    0  0.00000000000E+00 -0.00000000000E+00 -0.11897725971E+03  0.11897725971E+03  0.00000000000E+00 0. -1.
          6    1    1    2  502    0  0.91741101149E+02  0.19429629475E+02  0.10993695174E+02  0.19621111456E+03  0.17200000000E+03 0. -1.
         -6    1    1    2    0  501 -0.91741101149E+02 -0.19429629475E+02  0.33749237626E+03  0.39022947631E+03  0.17200000000E+03 0.  1.
</event>
<event>
 4    1  0.3196149E-002  0.1884008E+03  0.7818608E-02  0.1159912E+00
         -2   -1    0    0    0  501 -0.00000000000E+00  0.00000000000E+00  0.13185245921E+03  0.13185245921E+03  0.00000000000E+00 0.  1.
          2   -1    0    0  502    0  0.00000000000E+00 -0.00000000000E+00 -0.28282135964E+03  0.28282135964E+03  0.00000000000E+00 0. -1.
          6    1    1    2  502    0 -0.75483653929E+02  0.14597710182E+02 -0.29984869415E+02  0.19077203031E+03  0.17200000000E+03 0. -1.
         -6    1    1    2    0  501  0.75483653929E+02 -0.14597710182E+02 -0.12098403101E+03  0.22390178854E+03  0.17200000000E+03 0. -1.
</event>
<event>
 4    1  0.3196149E-002  0.2966067E+03  0.7818608E-02  0.1086949E+00
         -2   -1    0    0    0  501 -0.00000000000E+00  0.00000000000E+00  0.84360439998E+02  0.84360439998E+02  0.00000000000E+00 0.  1.
          2   -1    0    0  502    0  0.00000000000E+00 -0.00000000000E+00 -0.12408261352E+04  0.12408261352E+04  0.00000000000E+00 0. -1.
          6    1    1    2  502    0 -0.16728545911E+03  0.17437629554E+03 -0.84289690424E+03  0.89356069097E+03  0.17200000000E+03 0. -1.
         -6    1    1    2    0  501  0.16728545911E+03 -0.17437629554E+03 -0.31356879100E+03  0.43162588426E+03  0.17200000000E+03 0.  1.
</event>
<event>
 4    1  0.3196149E-002  0.2716896E+03  0.7818608E-02  0.1100316E+00
          3   -1    0    0  502    0  0.00000000000E+00  0.00000000000E+00  0.10351994321E+03  0.10351994321E+03  0.00000000000E+00 0. -1.
         -3   -1    0    0    0  501 -0.00000000000E+00 -0.00000000000E+00 -0.13908388740E+04  0.13908388740E+04  0.00000000000E+00 0.  1.
          6    1    1    2  502    0 -0.29742142346E+02 -0.20819855926E+03 -0.12206538835E+03  0.29785095961E+03  0.17200000000E+03 0. -1.
         -6    1    1    2    0  501  0.29742142346E+02  0.20819855926E+03 -0.11652535425E+04  0.11965078576E+04  0.17200000000E+03 0.  1.
</event>
<event>
 4    1  0.3196149E-002  0.1810495E+03  0.7818608E-02  0.1166791E+00
          2   -1    0    0  502    0  0.00000000000E+00  0.00000000000E+00  0.27205256572E+04  0.27205256572E+04  0.00000000000E+00 0. -1.
         -2   -1    0    0    0  501 -0.00000000000E+00 -0.00000000000E+00 -0.12887125747E+02  0.12887125747E+02  0.00000000000E+00 0.  1.
          6    1    1    2  502    0 -0.53593857042E+02 -0.17961511291E+02  0.10052267333E+04  0.10214008531E+04  0.17200000000E+03 0.  1.
         -6    1    1    2    0  501  0.53593857042E+02  0.17961511291E+02  0.17024117981E+04  0.17120119298E+04  0.17200000000E+03 0. -1.
</event>
<event>
 4    1  0.3196149E-002  0.2284456E+03  0.7818608E-02  0.1127739E+00
          2   -1    0    0  502    0  0.00000000000E+00  0.00000000000E+00  0.84767991201E+03  0.84767991201E+03  0.00000000000E+00 0. -1.
         -2   -1    0    0    0  501 -0.00000000000E+00 -0.00000000000E+00 -0.10024641245E+03  0.10024641245E+03  0.00000000000E+00 0.  1.
          6    1    1    2  502    0 -0.14752417132E+03 -0.28983189071E+02  0.66813273065E+03  0.70610817311E+03  0.17200000000E+03 0. -1.
         -6    1    1    2    0  501  0.14752417132E+03  0.28983189071E+02  0.79300768908E+02  0.24181815135E+03  0.17200000000E+03 0.  1.
</event>
<event>
 4    1  0.3196149E-002  0.2483676E+03  0.7818608E-02  0.1114341E+00
          1   -1    0    0  502    0  0.00000000000E+00  0.00000000000E+00  0.82603883853E+03  0.82603883853E+03  0.00000000000E+00 0. -1.
         -1   -1    0    0    0  501 -0.00000000000E+00 -0.00000000000E+00 -0.87105507983E+02  0.87105507983E+02  0.00000000000E+00 0.  1.
          6    1    1    2  502    0  0.38290735936E+02 -0.17503226799E+03  0.54192660872E+03  0.59612995608E+03  0.17200000000E+03 0. -1.
         -6    1    1    2    0  501 -0.38290735936E+02  0.17503226799E+03  0.19700672183E+03  0.31701439043E+03  0.17200000000E+03 0.  1.
</event>
<event>
 4    1  0.3196149E-002  0.1888804E+03  0.7818608E-02  0.1159475E+00
         -2   -1    0    0    0  501 -0.00000000000E+00  0.00000000000E+00  0.32121736730E+02  0.32121736730E+02  0.00000000000E+00 0.  1.
          2   -1    0    0  502    0  0.00000000000E+00 -0.00000000000E+00 -0.13234905726E+04  0.13234905726E+04  0.00000000000E+00 0. -1.
          6    1    1    2  502    0  0.25283965675E+02  0.73841182849E+02 -0.91750284057E+03  0.93674290051E+03  0.17200000000E+03 0. -1.
         -6    1    1    2    0  501 -0.25283965675E+02 -0.73841182849E+02 -0.37386599532E+03  0.41886940884E+03  0.17200000000E+03 0.  1.
</event>
<event>
 4    1  0.3196149E-002  0.8758263E+03  0.7818608E-02  0.9456315E-01
         -1   -1    0    0    0  501 -0.00000000000E+00  0.00000000000E+00  0.20376228078E+03  0.20376228078E+03  0.00000000000E+00 0.  1.
          1   -1    0    0  502    0  0.00000000000E+00 -0.00000000000E+00 -0.39196819188E+04  0.39196819188E+04  0.00000000000E+00 0. -1.
          6    1    1    2  502    0  0.16170850295E+03  0.84340864231E+03 -0.22681315366E+04  0.24313560918E+04  0.17200000000E+03 0. -1.
         -6    1    1    2    0  501 -0.16170850295E+03 -0.84340864231E+03 -0.14477881014E+04  0.16920881077E+04  0.17200000000E+03 0.  1.
</event>
<event>
 4    1  0.3196149E-002  0.1790452E+03  0.7818608E-02  0.1168730E+00
         -2   -1    0    0    0  501 -0.00000000000E+00  0.00000000000E+00  0.57933623947E+02  0.57933623947E+02  0.00000000000E+00 0.  1.
          2   -1    0    0  502    0  0.00000000000E+00 -0.00000000000E+00 -0.63757977566E+03  0.63757977566E+03  0.00000000000E+00 0. -1.
          6    1    1    2  502    0 -0.11544923880E+02  0.48372401363E+02 -0.41622645886E+03  0.45310223960E+03  0.17200000000E+03 0. -1.
         -6    1    1    2    0  501  0.11544923880E+02 -0.48372401363E+02 -0.16341969286E+03  0.24241116000E+03  0.17200000000E+03 0.  1.
</event>
<event>
 4    1  0.3196149E-002  0.1896760E+03  0.7818608E-02  0.1158754E+00
         -2   -1    0    0    0  501 -0.00000000000E+00  0.00000000000E+00  0.26683834627E+02  0.26683834627E+02  0.00000000000E+00 0.  1.
          2   -1    0    0  502    0  0.00000000000E+00 -0.00000000000E+00 -0.13926245421E+04  0.13926245421E+04  0.00000000000E+00 0. -1.
          6    1    1    2  502    0  0.30839682358E+00 -0.79955659554E+02 -0.80961908289E+03  0.83154077590E+03  0.17200000000E+03 0. -1.
         -6    1    1    2    0  501 -0.30839682358E+00  0.79955659554E+02 -0.55632162457E+03  0.58776760081E+03  0.17200000000E+03 0.  1.
</event>
<event>
 4    1  0.3196149E-002  0.4107958E+03  0.7818608E-02  0.1040104E+00
         -2   -1    0    0    0  501 -0.00000000000E+00  0.00000000000E+00  0.10321972539E+03  0.10321972539E+03  0.00000000000E+00 0.  1.
          2   -1    0    0  502    0  0.00000000000E+00 -0.00000000000E+00 -0.30660041533E+04  0.30660041533E+04  0.00000000000E+00 0. -1.
          6    1    1    2  502    0  0.25274740894E+03  0.27438643736E+03 -0.25640053483E+04  0.25967049497E+04  0.17200000000E+03 0. -1.
         -6    1    1    2    0  501 -0.25274740894E+03 -0.27438643736E+03 -0.39877907966E+03  0.57251892904E+03  0.17200000000E+03 0.  1.
</event>
<event>
 4    1  0.3196149E-002  0.3034865E+03  0.7818608E-02  0.1083511E+00
         -2   -1    0    0    0  501 -0.00000000000E+00  0.00000000000E+00  0.23378070752E+03  0.23378070752E+03  0.00000000000E+00 0.  1.
          2   -1    0    0  502    0  0.00000000000E+00 -0.00000000000E+00 -0.43778726217E+03  0.43778726217E+03  0.00000000000E+00 0. -1.
          6    1    1    2  502    0  0.19684743209E+02  0.24926402324E+03  0.42201103566E+01  0.30351581792E+03  0.17200000000E+03 0. -1.
         -6    1    1    2    0  501 -0.19684743209E+02 -0.24926402324E+03 -0.20822666501E+03  0.36805215176E+03  0.17200000000E+03 0.  1.
</event>
<event>
 4    1  0.3196149E-002  0.3874567E+03  0.7818608E-02  0.1048212E+00
          2   -1    0    0  502    0  0.00000000000E+00  0.00000000000E+00  0.11583006847E+04  0.11583006847E+04  0.00000000000E+00 0. -1.
         -2   -1    0    0    0  501 -0.00000000000E+00 -0.00000000000E+00 -0.15810880445E+03  0.15810880445E+03  0.00000000000E+00 0.  1.
          6    1    1    2  502    0  0.20264053978E+03  0.28191402216E+03  0.77956058417E+03  0.87053857390E+03  0.17200000000E+03 0. -1.
         -6    1    1    2    0  501 -0.20264053978E+03 -0.28191402216E+03  0.22063129610E+03  0.44587091526E+03  0.17200000000E+03 0.  1.
</event>
<event>
 4    1  0.3196149E-002  0.1958698E+03  0.7818608E-02  0.1153271E+00
         -2   -1    0    0    0  501 -0.00000000000E+00  0.00000000000E+00  0.20858270263E+02  0.20858270263E+02  0.00000000000E+00 0.  1.
          2   -1    0    0  502    0  0.00000000000E+00 -0.00000000000E+00 -0.23258130713E+04  0.23258130713E+04  0.00000000000E+00 0. -1.
          6    1    1    2  502    0  0.47597243922E+02  0.80718498671E+02 -0.61584797365E+03  0.64624585129E+03  0.17200000000E+03 0.  1.
         -6    1    1    2    0  501 -0.47597243922E+02 -0.80718498671E+02 -0.16891068274E+04  0.17004254903E+04  0.17200000000E+03 0. -1.
</event>
<event>
 4    1  0.3196149E-002  0.2006751E+03  0.7818608E-02  0.1149171E+00
          1   -1    0    0  502    0  0.00000000000E+00  0.00000000000E+00  0.12565521867E+03  0.12565521867E+03  0.00000000000E+00 0. -1.
         -1   -1    0    0    0  501 -0.00000000000E+00 -0.00000000000E+00 -0.34385082761E+03  0.34385082761E+03  0.00000000000E+00 0.  1.
          6    1    1    2  502    0 -0.55743117309E+02 -0.87058660501E+02 -0.47901573702E+02  0.20631302978E+03  0.17200000000E+03 0. -1.
         -6    1    1    2    0  501  0.55743117309E+02  0.87058660501E+02 -0.17029403524E+03  0.26319301650E+03  0.17200000000E+03 0.  1.
</event>
<event>
 4    1  0.3196149E-002  0.7358758E+03  0.7818608E-02  0.9657773E-01
         -1   -1    0    0    0  501 -0.00000000000E+00  0.00000000000E+00  0.37318355859E+03  0.37318355859E+03  0.00000000000E+00 0.  1.
          1   -1    0    0  502    0  0.00000000000E+00 -0.00000000000E+00 -0.17272526854E+04  0.17272526854E+04  0.00000000000E+00 0. -1.
          6    1    1    2  502    0  0.63363082149E+03 -0.33232694729E+03 -0.10969912794E+04  0.13209477980E+04  0.17200000000E+03 0. -1.
         -6    1    1    2    0  501 -0.63363082149E+03  0.33232694729E+03 -0.25707784736E+03  0.77948844600E+03  0.17200000000E+03 0.  1.
</event>
<event>
 4    1  0.3196149E-002  0.1786770E+03  0.7818608E-02  0.1169090E+00
          2   -1    0    0  502    0  0.00000000000E+00  0.00000000000E+00  0.90726630279E+02  0.90726630279E+02  0.00000000000E+00 0. -1.
         -2   -1    0    0    0  501 -0.00000000000E+00 -0.00000000000E+00 -0.37385225511E+03  0.37385225511E+03  0.00000000000E+00 0.  1.
          6    1    1    2  502    0 -0.90490486044E+01  0.47535270245E+02 -0.19786838254E+03  0.26660342084E+03  0.17200000000E+03 0.  1.
         -6    1    1    2    0  501  0.90490486044E+01 -0.47535270245E+02 -0.85257242294E+02  0.19797546454E+03  0.17200000000E+03 0. -1.
</event>
<event>
 4    1  0.3196149E-002  0.2221657E+03  0.7818608E-02  0.1132279E+00
          1   -1    0    0  502    0  0.00000000000E+00  0.00000000000E+00  0.15633415117E+03  0.15633415117E+03  0.00000000000E+00 0. -1.
         -1   -1    0    0    0  501 -0.00000000000E+00 -0.00000000000E+00 -0.47771798009E+03  0.47771798009E+03  0.00000000000E+00 0.  1.
          6    1    1    2  502    0 -0.90025676864E+02  0.10802293867E+03  0.23922683397E+02  0.22344993299E+03  0.17200000000E+03 0. -1.
         -6    1    1    2    0  501  0.90025676864E+02 -0.10802293867E+03 -0.34530651232E+03  0.41060219827E+03  0.17200000000E+03 0.  1.
</event>
<event>
 4    1  0.3196149E-002  0.2085700E+03  0.7818608E-02  0.1142703E+00
         -2   -1    0    0    0  501 -0.00000000000E+00  0.00000000000E+00  0.74205886300E+02  0.74205886300E+02  0.00000000000E+00 0.  1.
          2   -1    0    0  502    0  0.00000000000E+00 -0.00000000000E+00 -0.61352484580E+03  0.61352484580E+03  0.00000000000E+00 0. -1.
          6    1    1    2  502    0  0.24357952769E+02 -0.11543023370E+03 -0.19712551572E+03  0.28698417668E+03  0.17200000000E+03 0. -1.
         -6    1    1    2    0  501 -0.24357952769E+02  0.11543023370E+03 -0.34219344377E+03  0.40074655541E+03  0.17200000000E+03 0.  1.
</event>
<event>
 4    1  0.3196149E-002  0.3916612E+03  0.7818608E-02  0.1046706E+00
         -2   -1    0    0    0  501 -0.00000000000E+00  0.00000000000E+00  0.83239768248E+03  0.83239768248E+03  0.00000000000E+00 0.  1.
          2   -1    0    0  502    0  0.00000000000E+00 -0.00000000000E+00 -0.18903478591E+03  0.18903478591E+03  0.00000000000E+00 0. -1.
          6    1    1    2  502    0 -0.27022800687E+03  0.22536927866E+03  0.40263602225E+03  0.56170655495E+03  0.17200000000E+03 0.  1.
         -6    1    1    2    0  501  0.27022800687E+03 -0.22536927866E+03  0.24072687432E+03  0.45972591343E+03  0.17200000000E+03 0. -1.
</event>
<event>
 4    1  0.3196149E-002  0.2692927E+03  0.7818608E-02  0.1101685E+00
         -2   -1    0    0    0  501 -0.00000000000E+00  0.00000000000E+00  0.51959270159E+02  0.51959270159E+02  0.00000000000E+00 0.  1.
          2   -1    0    0  502    0  0.00000000000E+00 -0.00000000000E+00 -0.13994467105E+04  0.13994467105E+04  0.00000000000E+00 0. -1.
          6    1    1    2  502    0 -0.15325068339E+03  0.13945898049E+03 -0.71138719412E+03  0.76065124673E+03  0.17200000000E+03 0. -1.
         -6    1    1    2    0  501  0.15325068339E+03 -0.13945898049E+03 -0.63610024620E+03  0.69075473391E+03  0.17200000000E+03 0.  1.
</event>
<event>
 4    1  0.3196149E-002  0.2583681E+03  0.7818608E-02  0.1108128E+00
         -2   -1    0    0    0  501 -0.00000000000E+00  0.00000000000E+00  0.76775129696E+02  0.76775129696E+02  0.00000000000E+00 0.  1.
          2   -1    0    0  502    0  0.00000000000E+00 -0.00000000000E+00 -0.14659309802E+04  0.14659309802E+04  0.00000000000E+00 0. -1.
          6    1    1    2  502    0 -0.18949665862E+03  0.35511822357E+02 -0.20255475028E+03  0.32830245204E+03  0.17200000000E+03 0.  1.
         -6    1    1    2    0  501  0.18949665862E+03 -0.35511822357E+02 -0.11866011002E+04  0.12144036579E+04  0.17200000000E+03 0. -1.
</event>
<event>
 4    1  0.3196149E-002  0.3171705E+03  0.7818608E-02  0.1076959E+00
         -2   -1    0    0    0  501 -0.00000000000E+00  0.00000000000E+00  0.19492362870E+03  0.19492362870E+03  0.00000000000E+00 0.  1.
          2   -1    0    0  502    0  0.00000000000E+00 -0.00000000000E+00 -0.75878625255E+03  0.75878625255E+03  0.00000000000E+00 0. -1.
          6    1    1    2  502    0 -0.65626764058E+02  0.25827552413E+03 -0.55162002018E+03  0.63630320225E+03  0.17200000000E+03 0. -1.
         -6    1    1    2    0  501  0.65626764058E+02 -0.25827552413E+03 -0.12242603670E+02  0.31740667900E+03  0.17200000000E+03 0.  1.
</event>
<event>
 4    1  0.3196149E-002  0.2279668E+03  0.7818608E-02  0.1128079E+00
         -3   -1    0    0    0  501 -0.00000000000E+00  0.00000000000E+00  0.24330674670E+03  0.24330674670E+03  0.00000000000E+00 0.  1.
          3   -1    0    0  502    0  0.00000000000E+00 -0.00000000000E+00 -0.23650936784E+03  0.23650936784E+03  0.00000000000E+00 0. -1.
          6    1    1    2  502    0 -0.72913827652E+01 -0.14943799757E+03 -0.71277710140E+02  0.23885014411E+03  0.17200000000E+03 0. -1.
         -6    1    1    2    0  501  0.72913827652E+01  0.14943799757E+03  0.78075088998E+02  0.24096597042E+03  0.17200000000E+03 0.  1.
</event>
<event>
 4    1  0.3196149E-002  0.1801855E+03  0.7818608E-02  0.1167624E+00
         -1   -1    0    0    0  501 -0.00000000000E+00  0.00000000000E+00  0.27343239570E+02  0.27343239570E+02  0.00000000000E+00 0.  1.
          1   -1    0    0  502    0  0.00000000000E+00 -0.00000000000E+00 -0.13372577925E+04  0.13372577925E+04  0.00000000000E+00 0. -1.
          6    1    1    2  502    0 -0.43084683334E+02 -0.32039166807E+02 -0.88337916114E+03  0.90156837815E+03  0.17200000000E+03 0. -1.
         -6    1    1    2    0  501  0.43084683334E+02  0.32039166807E+02 -0.42653539183E+03  0.46303265396E+03  0.17200000000E+03 0.  1.
</event>
<event>
 4    1  0.3196149E-002  0.2075605E+03  0.7818608E-02  0.1143513E+00
         -2   -1    0    0    0  501 -0.00000000000E+00  0.00000000000E+00  0.59721972394E+02  0.59721972394E+02  0.00000000000E+00 0.  1.
          2   -1    0    0  502    0  0.00000000000E+00 -0.00000000000E+00 -0.83137108556E+03  0.83137108556E+03  0.00000000000E+00 0. -1.
          6    1    1    2  502    0  0.10994935390E+03  0.37529857082E+02 -0.22375418330E+03  0.30520040161E+03  0.17200000000E+03 0. -1.
         -6    1    1    2    0  501 -0.10994935390E+03 -0.37529857082E+02 -0.54789492987E+03  0.58589265635E+03  0.17200000000E+03 0.  1.
</event>
<event>
 4    1  0.3196149E-002  0.2853722E+03  0.7818608E-02  0.1092790E+00
         -1   -1    0    0    0  501 -0.00000000000E+00  0.00000000000E+00  0.19591708414E+03  0.19591708414E+03  0.00000000000E+00 0.  1.
          1   -1    0    0  502    0  0.00000000000E+00 -0.00000000000E+00 -0.42070733588E+03  0.42070733588E+03  0.00000000000E+00 0. -1.
          6    1    1    2  502    0 -0.80907018662E+02 -0.21285516060E+03 -0.78665559941E+02  0.29601610663E+03  0.17200000000E+03 0. -1.
         -6    1    1    2    0  501  0.80907018662E+02  0.21285516060E+03 -0.14612469181E+03  0.32060831339E+03  0.17200000000E+03 0. -1.
</event>
<event>
 4    1  0.3196149E-002  0.1730989E+03  0.7818608E-02  0.1174654E+00
          1   -1    0    0  502    0  0.00000000000E+00  0.00000000000E+00  0.61515407535E+03  0.61515407535E+03  0.00000000000E+00 0. -1.
         -1   -1    0    0    0  501 -0.00000000000E+00 -0.00000000000E+00 -0.46427738383E+03  0.46427738383E+03  0.00000000000E+00 0.  1.
          6    1    1    2  502    0  0.61332107980E+01 -0.18482651849E+02  0.58605835425E+03  0.61108724359E+03  0.17200000000E+03 0. -1.
         -6    1    1    2    0  501 -0.61332107980E+01  0.18482651849E+02 -0.43518166273E+03  0.46834421558E+03  0.17200000000E+03 0.  1.
</event>
<event>
 4    1  0.3196149E-002  0.3075277E+03  0.7818608E-02  0.1081537E+00
          2   -1    0    0  502    0  0.00000000000E+00  0.00000000000E+00  0.32947076591E+03  0.32947076591E+03  0.00000000000E+00 0. -1.
         -2   -1    0    0    0  501 -0.00000000000E+00 -0.00000000000E+00 -0.36545613586E+03  0.36545613586E+03  0.00000000000E+00 0.  1.
          6    1    1    2  502    0  0.44955314884E+02  0.25093481391E+03  0.14295237052E+03  0.33912923997E+03  0.17200000000E+03 0. -1.
         -6    1    1    2    0  501 -0.44955314884E+02 -0.25093481391E+03 -0.17893774046E+03  0.35579766179E+03  0.17200000000E+03 0.  1.
</event>
<event>
 4    1  0.3196149E-002  0.2595241E+03  0.7818608E-02  0.1107429E+00
         -2   -1    0    0    0  501 -0.00000000000E+00  0.00000000000E+00  0.54513511064E+03  0.54513511064E+03  0.00000000000E+00 0.  1.
          2   -1    0    0  502    0  0.00000000000E+00 -0.00000000000E+00 -0.12397433133E+03  0.12397433133E+03  0.00000000000E+00 0. -1.
          6    1    1    2  502    0 -0.19255062169E+03 -0.26325670966E+02  0.19106432242E+03  0.32227062877E+03  0.17200000000E+03 0. -1.
         -6    1    1    2    0  501  0.19255062169E+03  0.26325670966E+02  0.23009645688E+03  0.34683881319E+03  0.17200000000E+03 0.  1.
</event>
<event>
 4    1  0.3196149E-002  0.1727866E+03  0.7818608E-02  0.1174973E+00
          1   -1    0    0  502    0  0.00000000000E+00  0.00000000000E+00  0.36868787510E+03  0.36868787510E+03  0.00000000000E+00 0. -1.
         -1   -1    0    0    0  501 -0.00000000000E+00 -0.00000000000E+00 -0.15324811164E+03  0.15324811164E+03  0.00000000000E+00 0.  1.
          6    1    1    2  502    0  0.14641961471E+02 -0.75372683497E+01  0.28693406556E+03  0.33494231657E+03  0.17200000000E+03 0. -1.
         -6    1    1    2    0  501 -0.14641961471E+02  0.75372683497E+01 -0.71494302102E+02  0.18699367017E+03  0.17200000000E+03 0.  1.
</event>
<event>
 4    1  0.3196149E-002  0.2172006E+03  0.7818608E-02  0.1135987E+00
         -2   -1    0    0    0  501 -0.00000000000E+00  0.00000000000E+00  0.52699812061E+03  0.52699812061E+03  0.00000000000E+00 0.  1.
          2   -1    0    0  502    0  0.00000000000E+00 -0.00000000000E+00 -0.91184742479E+02  0.91184742479E+02  0.00000000000E+00 0. -1.
          6    1    1    2  502    0  0.66900332322E+02  0.11452714781E+03  0.25968827218E+03  0.33854707318E+03  0.17200000000E+03 0.  1.
         -6    1    1    2    0  501 -0.66900332322E+02 -0.11452714781E+03  0.17612510595E+03  0.27963578991E+03  0.17200000000E+03 0.  1.
</event>
<event>
 4    1  0.3196149E-002  0.5319825E+03  0.7818608E-02  0.1005752E+00
         -1   -1    0    0    0  501 -0.00000000000E+00  0.00000000000E+00  0.35898205704E+03  0.35898205704E+03  0.00000000000E+00 0.  1.
          1   -1    0    0  502    0  0.00000000000E+00 -0.00000000000E+00 -0.83108895873E+03  0.83108895873E+03  0.00000000000E+00 0. -1.
          6    1    1    2  502    0  0.73387370727E+02  0.49803177045E+03 -0.37098234704E+03  0.64856245064E+03  0.17200000000E+03 0. -1.
         -6    1    1    2    0  501 -0.73387370727E+02 -0.49803177045E+03 -0.10112455464E+03  0.54150856513E+03  0.17200000000E+03 0.  1.
</event>
<event>
 4    1  0.3196149E-002  0.6053822E+03  0.7818608E-02  0.9894302E-01
         -1   -1    0    0    0  501 -0.00000000000E+00  0.00000000000E+00  0.34992195003E+03  0.34992195003E+03  0.00000000000E+00 0.  1.
          1   -1    0    0  502    0  0.00000000000E+00 -0.00000000000E+00 -0.10754538809E+04  0.10754538809E+04  0.00000000000E+00 0. -1.
          6    1    1    2  502    0  0.10092046698E+03 -0.57159313347E+03 -0.47799320666E+03  0.77133984501E+03  0.17200000000E+03 0. -1.
         -6    1    1    2    0  501 -0.10092046698E+03  0.57159313347E+03 -0.24753872419E+03  0.65403598590E+03  0.17200000000E+03 0.  1.
</event>
<event>
 4    1  0.3196149E-002  0.1742327E+03  0.7818608E-02  0.1173504E+00
         -1   -1    0    0    0  501 -0.00000000000E+00  0.00000000000E+00  0.11021601135E+03  0.11021601135E+03  0.00000000000E+00 0.  1.
          1   -1    0    0  502    0  0.00000000000E+00 -0.00000000000E+00 -0.35421058836E+03  0.35421058836E+03  0.00000000000E+00 0. -1.
          6    1    1    2  502    0  0.88920470695E+00 -0.27789504571E+02 -0.23150876818E+03  0.28974705692E+03  0.17200000000E+03 0. -1.
         -6    1    1    2    0  501 -0.88920470695E+00  0.27789504571E+02 -0.12485808829E+02  0.17467954280E+03  0.17200000000E+03 0.  1.
</event>
<event>
 4    1  0.3196149E-002  0.2064010E+03  0.7818608E-02  0.1144448E+00
          4   -1    0    0  502    0  0.00000000000E+00  0.00000000000E+00  0.10076840766E+03  0.10076840766E+03  0.00000000000E+00 0. -1.
         -4   -1    0    0    0  501 -0.00000000000E+00 -0.00000000000E+00 -0.51964189041E+03  0.51964189041E+03  0.00000000000E+00 0.  1.
          6    1    1    2  502    0  0.93007026673E+02  0.66083893146E+02 -0.75497971244E+02  0.21977563925E+03  0.17200000000E+03 0. -1.
         -6    1    1    2    0  501 -0.93007026673E+02 -0.66083893146E+02 -0.34337551151E+03  0.40063465882E+03  0.17200000000E+03 0.  1.
</event>
<event>
 4    1  0.3196149E-002  0.5637473E+03  0.7818608E-02  0.9983611E-01
          4   -1    0    0  502    0  0.00000000000E+00  0.00000000000E+00  0.95149123520E+03  0.95149123520E+03  0.00000000000E+00 0. -1.
         -4   -1    0    0    0  501 -0.00000000000E+00 -0.00000000000E+00 -0.62697792024E+03  0.62697792024E+03  0.00000000000E+00 0.  1.
          6    1    1    2  502    0  0.20513521923E+03 -0.49613163270E+03  0.70175152014E+03  0.90014790516E+03  0.17200000000E+03 0. -1.
         -6    1    1    2    0  501 -0.20513521923E+03  0.49613163270E+03 -0.37723820519E+03  0.67832125028E+03  0.17200000000E+03 0.  1.
</event>
<event>
 4    1  0.3196149E-002  0.2010028E+03  0.7818608E-02  0.1148896E+00
          1   -1    0    0  502    0  0.00000000000E+00  0.00000000000E+00  0.88573345380E+03  0.88573345380E+03  0.00000000000E+00 0. -1.
         -1   -1    0    0    0  501 -0.00000000000E+00 -0.00000000000E+00 -0.55279897755E+02  0.55279897755E+02  0.00000000000E+00 0.  1.
          6    1    1    2  502    0 -0.72073445957E+01  0.10376021736E+03  0.61196833352E+03  0.64413303731E+03  0.17200000000E+03 0. -1.
         -6    1    1    2    0  501  0.72073445957E+01 -0.10376021736E+03  0.21848522252E+03  0.29688031424E+03  0.17200000000E+03 0.  1.
</event>
<event>
 4    1  0.3196149E-002  0.5602943E+03  0.7818608E-02  0.9991389E-01
          1   -1    0    0  502    0  0.00000000000E+00  0.00000000000E+00  0.32133854761E+03  0.32133854761E+03  0.00000000000E+00 0. -1.
         -1   -1    0    0    0  501 -0.00000000000E+00 -0.00000000000E+00 -0.17771698055E+04  0.17771698055E+04  0.00000000000E+00 0.  1.
          6    1    1    2  502    0 -0.51670297421E+03 -0.13177162194E+03 -0.23834741467E+02  0.56080105101E+03  0.17200000000E+03 0. -1.
         -6    1    1    2    0  501  0.51670297421E+03  0.13177162194E+03 -0.14319965164E+04  0.15377073021E+04  0.17200000000E+03 0.  1.
</event>
<event>
 4    1  0.3196149E-002  0.2047388E+03  0.7818608E-02  0.1145801E+00
          2   -1    0    0  502    0  0.00000000000E+00  0.00000000000E+00  0.18256937812E+04  0.18256937812E+04  0.00000000000E+00 0. -1.
         -2   -1    0    0    0  501 -0.00000000000E+00 -0.00000000000E+00 -0.38302630200E+02  0.38302630200E+02  0.00000000000E+00 0.  1.
          6    1    1    2  502    0  0.11105828393E+03 -0.20366812771E+00  0.14835573625E+04  0.14976182530E+04  0.17200000000E+03 0. -1.
         -6    1    1    2    0  501 -0.11105828393E+03  0.20366812771E+00  0.30383378847E+03  0.36637815837E+03  0.17200000000E+03 0.  1.
</event>
<event>
 4    1  0.3196149E-002  0.1784644E+03  0.7818608E-02  0.1169298E+00
          1   -1    0    0  502    0  0.00000000000E+00  0.00000000000E+00  0.39132530833E+04  0.39132530833E+04  0.00000000000E+00 0. -1.
         -1   -1    0    0    0  501 -0.00000000000E+00 -0.00000000000E+00 -0.12054231767E+02  0.12054231767E+02  0.00000000000E+00 0.  1.
          6    1    1    2  502    0 -0.14052322076E+02 -0.45476040797E+02  0.30691579568E+04  0.30743422227E+04  0.17200000000E+03 0. -1.
         -6    1    1    2    0  501  0.14052322076E+02  0.45476040797E+02  0.83204089473E+03  0.85096509244E+03  0.17200000000E+03 0.  1.
</event>
<event>
 4    1  0.3196149E-002  0.2203489E+03  0.7818608E-02  0.1133623E+00
          2   -1    0    0  502    0  0.00000000000E+00  0.00000000000E+00  0.37715498395E+03  0.37715498395E+03  0.00000000000E+00 0. -1.
         -2   -1    0    0    0  501 -0.00000000000E+00 -0.00000000000E+00 -0.20876324253E+03  0.20876324253E+03  0.00000000000E+00 0.  1.
          6    1    1    2  502    0  0.83252767325E+02  0.10972052771E+03  0.26557926725E+03  0.34508834327E+03  0.17200000000E+03 0. -1.
         -6    1    1    2    0  501 -0.83252767325E+02 -0.10972052771E+03 -0.97187525832E+02  0.24082988321E+03  0.17200000000E+03 0.  1.
</event>
<event>
 4    1  0.3196149E-002  0.2344960E+03  0.7818608E-02  0.1123515E+00
         -2   -1    0    0    0  501 -0.00000000000E+00  0.00000000000E+00  0.17784993858E+03  0.17784993858E+03  0.00000000000E+00 0.  1.
          2   -1    0    0  502    0  0.00000000000E+00 -0.00000000000E+00 -0.35802864696E+03  0.35802864696E+03  0.00000000000E+00 0. -1.
          6    1    1    2  502    0  0.14251369986E+03  0.71373777722E+02 -0.18905526387E+03  0.30121464704E+03  0.17200000000E+03 0. -1.
         -6    1    1    2    0  501 -0.14251369986E+03 -0.71373777722E+02  0.88765554907E+01  0.23466393850E+03  0.17200000000E+03 0.  1.
</event>
<event>
 4    1  0.3196149E-002  0.2504739E+03  0.7818608E-02  0.1113006E+00
         -1   -1    0    0    0  501 -0.00000000000E+00  0.00000000000E+00  0.81025547386E+02  0.81025547386E+02  0.00000000000E+00 0.  1.
          1   -1    0    0  502    0  0.00000000000E+00 -0.00000000000E+00 -0.89547152639E+03  0.89547152639E+03  0.00000000000E+00 0. -1.
          6    1    1    2  502    0  0.17908151691E+03 -0.32908551207E+02 -0.58683512316E+03  0.63805377846E+03  0.17200000000E+03 0. -1.
         -6    1    1    2    0  501 -0.17908151691E+03  0.32908551207E+02 -0.22761085584E+03  0.33844329531E+03  0.17200000000E+03 0.  1.
</event>
<event>
 4    1  0.3196149E-002  0.2956932E+03  0.7818608E-02  0.1087414E+00
         -4   -1    0    0    0  501 -0.00000000000E+00  0.00000000000E+00  0.12628933161E+04  0.12628933161E+04  0.00000000000E+00 0.  1.
          4   -1    0    0  502    0  0.00000000000E+00 -0.00000000000E+00 -0.83769116554E+02  0.83769116554E+02  0.00000000000E+00 0. -1.
          6    1    1    2  502    0 -0.20612104492E+03 -0.12395407382E+03  0.30908085389E+03  0.42774463388E+03  0.17200000000E+03 0. -1.
         -6    1    1    2    0  501  0.20612104492E+03  0.12395407382E+03  0.87004334565E+03  0.91891779876E+03  0.17200000000E+03 0.  1.
</event>
<event>
 4    1  0.3196149E-002  0.7375001E+03  0.7818608E-02  0.9655167E-01
         -2   -1    0    0    0  501 -0.00000000000E+00  0.00000000000E+00  0.38346010337E+03  0.38346010337E+03  0.00000000000E+00 0.  1.
          2   -1    0    0  502    0  0.00000000000E+00 -0.00000000000E+00 -0.17695224537E+04  0.17695224537E+04  0.00000000000E+00 0. -1.
          6    1    1    2  502    0  0.55366391281E+03 -0.45582746643E+03 -0.11725450063E+04  0.13851960869E+04  0.17200000000E+03 0. -1.
         -6    1    1    2    0  501 -0.55366391281E+03  0.45582746643E+03 -0.21351734403E+03  0.76778647012E+03  0.17200000000E+03 0.  1.
</event>
<event>
 4    1  0.3196149E-002  0.2564156E+03  0.7818608E-02  0.1109316E+00
          2   -1    0    0  502    0  0.00000000000E+00  0.00000000000E+00  0.35733156096E+03  0.35733156096E+03  0.00000000000E+00 0. -1.
         -2   -1    0    0    0  501 -0.00000000000E+00 -0.00000000000E+00 -0.46957206914E+03  0.46957206914E+03  0.00000000000E+00 0.  1.
          6    1    1    2  502    0  0.13788200460E+03  0.13097139256E+03  0.26630700720E+03  0.36968686066E+03  0.17200000000E+03 0. -1.
         -6    1    1    2    0  501 -0.13788200460E+03 -0.13097139256E+03 -0.37854751538E+03  0.45721676944E+03  0.17200000000E+03 0.  1.
</event>
<event>
 4    1  0.3196149E-002  0.2253735E+03  0.7818608E-02  0.1129939E+00
         -2   -1    0    0    0  501 -0.00000000000E+00  0.00000000000E+00  0.84882345866E+02  0.84882345866E+02  0.00000000000E+00 0.  1.
          2   -1    0    0  502    0  0.00000000000E+00 -0.00000000000E+00 -0.67042465525E+03  0.67042465525E+03  0.00000000000E+00 0. -1.
          6    1    1    2  502    0  0.75110205875E+02 -0.12477054338E+03 -0.41655730508E+03  0.47361716601E+03  0.17200000000E+03 0. -1.
         -6    1    1    2    0  501 -0.75110205875E+02  0.12477054338E+03 -0.16898500430E+03  0.28168983510E+03  0.17200000000E+03 0.  1.
</event>
<event>
 4    1  0.3196149E-002  0.3229896E+03  0.7818608E-02  0.1074282E+00
          2   -1    0    0  502    0  0.00000000000E+00  0.00000000000E+00  0.34686740578E+03  0.34686740578E+03  0.00000000000E+00 0. -1.
         -2   -1    0    0    0  501 -0.00000000000E+00 -0.00000000000E+00 -0.43548510902E+03  0.43548510902E+03  0.00000000000E+00 0.  1.
          6    1    1    2  502    0 -0.26698793692E+03 -0.58785615640E+02  0.17327027634E+03  0.36653089328E+03  0.17200000000E+03 0. -1.
         -6    1    1    2    0  501  0.26698793692E+03  0.58785615640E+02 -0.26188797959E+03  0.41582162151E+03  0.17200000000E+03 0.  1.
</event>
<event>
 4    1  0.3196149E-002  0.2742790E+03  0.7818608E-02  0.1098855E+00
          1   -1    0    0  502    0  0.00000000000E+00  0.00000000000E+00  0.99689849844E+03  0.99689849844E+03  0.00000000000E+00 0. -1.
         -1   -1    0    0    0  501 -0.00000000000E+00 -0.00000000000E+00 -0.27030388791E+03  0.27030388791E+03  0.00000000000E+00 0.  1.
          6    1    1    2  502    0 -0.13556963865E+03  0.16512378919E+03  0.90123235742E+03  0.94204498552E+03  0.17200000000E+03 0. -1.
         -6    1    1    2    0  501  0.13556963865E+03 -0.16512378919E+03 -0.17463774689E+03  0.32515740083E+03  0.17200000000E+03 0.  1.
</event>
<event>
 4    1  0.3196149E-002  0.2035476E+03  0.7818608E-02  0.1146780E+00
          1   -1    0    0  502    0  0.00000000000E+00  0.00000000000E+00  0.77056590847E+03  0.77056590847E+03  0.00000000000E+00 0. -1.
         -1   -1    0    0    0  501 -0.00000000000E+00 -0.00000000000E+00 -0.78657721893E+02  0.78657721893E+02  0.00000000000E+00 0.  1.
          6    1    1    2  502    0 -0.38983478927E+02 -0.10162634671E+03  0.58480849352E+03  0.61921934730E+03  0.17200000000E+03 0. -1.
         -6    1    1    2    0  501  0.38983478927E+02  0.10162634671E+03  0.10709969306E+03  0.23000428306E+03  0.17200000000E+03 0.  1.
</event>
<event>
 4    1  0.3196149E-002  0.2394428E+03  0.7818608E-02  0.1120165E+00
          1   -1    0    0  502    0  0.00000000000E+00  0.00000000000E+00  0.10356488177E+04  0.10356488177E+04  0.00000000000E+00 0. -1.
         -1   -1    0    0    0  501 -0.00000000000E+00 -0.00000000000E+00 -0.56127966544E+02  0.56127966544E+02  0.00000000000E+00 0.  1.
          6    1    1    2  502    0 -0.16613627119E+03 -0.12147877399E+02  0.55364159331E+03  0.60320133071E+03  0.17200000000E+03 0. -1.
         -6    1    1    2    0  501  0.16613627119E+03  0.12147877399E+02  0.42587925785E+03  0.48857545353E+03  0.17200000000E+03 0.  1.
</event>
<event>
 4    1  0.3196149E-002  0.2323504E+03  0.7818608E-02  0.1124996E+00
          1   -1    0    0  502    0  0.00000000000E+00  0.00000000000E+00  0.67031867387E+03  0.67031867387E+03  0.00000000000E+00 0. -1.
         -1   -1    0    0    0  501 -0.00000000000E+00 -0.00000000000E+00 -0.85027665410E+02  0.85027665410E+02  0.00000000000E+00 0.  1.
          6    1    1    2  502    0 -0.13585232097E+03  0.77115838271E+02  0.20586920568E+03  0.31043330277E+03  0.17200000000E+03 0.  1.
         -6    1    1    2    0  501  0.13585232097E+03 -0.77115838271E+02  0.37942180278E+03  0.44491303650E+03  0.17200000000E+03 0. -1.
</event>
<event>
 4    1  0.3196149E-002  0.2087598E+03  0.7818608E-02  0.1142552E+00
         -2   -1    0    0    0  501 -0.00000000000E+00  0.00000000000E+00  0.91697645295E+02  0.91697645295E+02  0.00000000000E+00 0.  1.
          2   -1    0    0  502    0  0.00000000000E+00 -0.00000000000E+00 -0.16945510314E+04  0.16945510314E+04  0.00000000000E+00 0. -1.
          6    1    1    2  502    0 -0.96344960961E+02  0.68660768695E+02 -0.15590223098E+04  0.15729371301E+04  0.17200000000E+03 0. -1.
         -6    1    1    2    0  501  0.96344960961E+02 -0.68660768695E+02 -0.43831076252E+02  0.21331154658E+03  0.17200000000E+03 0.  1.
</event>
<event>
 4    1  0.3196149E-002  0.4172331E+03  0.7818608E-02  0.1037971E+00
          2   -1    0    0  502    0  0.00000000000E+00  0.00000000000E+00  0.24574892378E+04  0.24574892378E+04  0.00000000000E+00 0. -1.
         -2   -1    0    0    0  501 -0.00000000000E+00 -0.00000000000E+00 -0.10154605785E+03  0.10154605785E+03  0.00000000000E+00 0.  1.
          6    1    1    2  502    0  0.24537789868E+03 -0.29032587618E+03  0.47434623203E+03  0.63173394351E+03  0.17200000000E+03 0. -1.
         -6    1    1    2    0  501 -0.24537789868E+03  0.29032587618E+03  0.18815969479E+04  0.19273013521E+04  0.17200000000E+03 0.  1.
</event>
<event>
 4    1  0.3196149E-002  0.3783539E+03  0.7818608E-02  0.1051544E+00
         -2   -1    0    0    0  501 -0.00000000000E+00  0.00000000000E+00  0.49968882425E+03  0.49968882425E+03  0.00000000000E+00 0.  1.
          2   -1    0    0  502    0  0.00000000000E+00 -0.00000000000E+00 -0.28989310540E+03  0.28989310540E+03  0.00000000000E+00 0. -1.
          6    1    1    2  502    0  0.22833571412E+03  0.24785178423E+03  0.62071146406E+02  0.38341170106E+03  0.17200000000E+03 0. -1.
         -6    1    1    2    0  501 -0.22833571412E+03 -0.24785178423E+03  0.14772457245E+03  0.40617022859E+03  0.17200000000E+03 0.  1.
</event>
<event>
 4    1  0.3196149E-002  0.9796235E+03  0.7818608E-02  0.9331180E-01
          2   -1    0    0  502    0  0.00000000000E+00  0.00000000000E+00  0.20667946844E+04  0.20667946844E+04  0.00000000000E+00 0. -1.
         -2   -1    0    0    0  501 -0.00000000000E+00 -0.00000000000E+00 -0.10065732359E+04  0.10065732359E+04  0.00000000000E+00 0.  1.
          6    1    1    2  502    0 -0.94710180707E+03  0.18186901187E+03  0.16579867955E+04  0.19257679986E+04  0.17200000000E+03 0. -1.
         -6    1    1    2    0  501  0.94710180707E+03 -0.18186901187E+03 -0.59776534694E+03  0.11475999218E+04  0.17200000000E+03 0.  1.
</event>
<event>
 4    1  0.3196149E-002  0.3285556E+03  0.7818608E-02  0.1071778E+00
          1   -1    0    0  502    0  0.00000000000E+00  0.00000000000E+00  0.28072684732E+03  0.28072684732E+03  0.00000000000E+00 0. -1.
         -1   -1    0    0    0  501 -0.00000000000E+00 -0.00000000000E+00 -0.49991172078E+03  0.49991172078E+03  0.00000000000E+00 0.  1.
          6    1    1    2  502    0 -0.27843990230E+03 -0.28913286888E+02  0.77922587687E+02  0.33766949377E+03  0.17200000000E+03 0. -1.
         -6    1    1    2    0  501  0.27843990230E+03  0.28913286888E+02 -0.29710746115E+03  0.44296907434E+03  0.17200000000E+03 0.  1.
</event>
<event>
 4    1  0.3196149E-002  0.1987239E+03  0.7818608E-02  0.1150820E+00
         -3   -1    0    0    0  501 -0.00000000000E+00  0.00000000000E+00  0.25674717504E+02  0.25674717504E+02  0.00000000000E+00 0.  1.
          3   -1    0    0  502    0  0.00000000000E+00 -0.00000000000E+00 -0.15384739606E+04  0.15384739606E+04  0.00000000000E+00 0. -1.
          6    1    1    2  502    0 -0.99433144215E+02  0.44966917643E+01 -0.76801563002E+03  0.79330900559E+03  0.17200000000E+03 0. -1.
         -6    1    1    2    0  501  0.99433144215E+02 -0.44966917643E+01 -0.74478361306E+03  0.77083967249E+03  0.17200000000E+03 0.  1.
</event>
<event>
 4    1  0.3196149E-002  0.1871322E+03  0.7818608E-02  0.1161074E+00
          2   -1    0    0  502    0  0.00000000000E+00  0.00000000000E+00  0.28496413725E+02  0.28496413725E+02  0.00000000000E+00 0. -1.
         -2   -1    0    0    0  501 -0.00000000000E+00 -0.00000000000E+00 -0.13010572373E+04  0.13010572373E+04  0.00000000000E+00 0.  1.
          6    1    1    2  502    0 -0.32246854252E+02 -0.66291840937E+02 -0.47969566612E+03  0.51490426283E+03  0.17200000000E+03 0.  1.
         -6    1    1    2    0  501  0.32246854252E+02  0.66291840937E+02 -0.79286515744E+03  0.81464938818E+03  0.17200000000E+03 0.  1.
</event>
<event>
 4    1  0.3196149E-002  0.2114258E+03  0.7818608E-02  0.1140442E+00
          2   -1    0    0  502    0  0.00000000000E+00  0.00000000000E+00  0.71907929222E+03  0.71907929222E+03  0.00000000000E+00 0. -1.
         -2   -1    0    0    0  501 -0.00000000000E+00 -0.00000000000E+00 -0.69399193627E+02  0.69399193627E+02  0.00000000000E+00 0.  1.
          6    1    1    2  502    0 -0.81766951813E+02  0.91820730998E+02  0.45213354686E+03  0.49912485938E+03  0.17200000000E+03 0. -1.
         -6    1    1    2    0  501  0.81766951813E+02 -0.91820730998E+02  0.19754655173E+03  0.28935362647E+03  0.17200000000E+03 0.  1.
</event>
<event>
 4    1  0.3196149E-002  0.2965806E+03  0.7818608E-02  0.1086963E+00
         -1   -1    0    0    0  501 -0.00000000000E+00  0.00000000000E+00  0.47287735144E+03  0.47287735144E+03  0.00000000000E+00 0.  1.
          1   -1    0    0  502    0  0.00000000000E+00 -0.00000000000E+00 -0.77571281233E+03  0.77571281233E+03  0.00000000000E+00 0. -1.
          6    1    1    2  502    0  0.17069513530E+03 -0.17099477182E+03 -0.69573978775E+03  0.75631600106E+03  0.17200000000E+03 0. -1.
         -6    1    1    2    0  501 -0.17069513530E+03  0.17099477182E+03  0.39290432686E+03  0.49227416271E+03  0.17200000000E+03 0.  1.
</event>
<event>
 4    1  0.3196149E-002  0.1962634E+03  0.7818608E-02  0.1152930E+00
          2   -1    0    0  502    0  0.00000000000E+00  0.00000000000E+00  0.13217107206E+04  0.13217107206E+04  0.00000000000E+00 0. -1.
         -2   -1    0    0    0  501 -0.00000000000E+00 -0.00000000000E+00 -0.32129008110E+02  0.32129008110E+02  0.00000000000E+00 0.  1.
          6    1    1    2  502    0 -0.40579134695E+02 -0.85373661520E+02  0.85113629484E+03  0.87347141948E+03  0.17200000000E+03 0. -1.
         -6    1    1    2    0  501  0.40579134695E+02  0.85373661520E+02  0.43844541766E+03  0.48036830924E+03  0.17200000000E+03 0.  1.
</event>
<event>
 4    1  0.3196149E-002  0.3517352E+03  0.7818608E-02  0.1061905E+00
         -1   -1    0    0    0  501 -0.00000000000E+00  0.00000000000E+00  0.33705468640E+03  0.33705468640E+03  0.00000000000E+00 0.  1.
          1   -1    0    0  502    0  0.00000000000E+00 -0.00000000000E+00 -0.58562192667E+03  0.58562192667E+03  0.00000000000E+00 0. -1.
          6    1    1    2  502    0 -0.12259233522E+03  0.28125569862E+03 -0.40612383109E+03  0.53726549754E+03  0.17200000000E+03 0. -1.
         -6    1    1    2    0  501  0.12259233522E+03 -0.28125569862E+03  0.15755659083E+03  0.38541111553E+03  0.17200000000E+03 0.  1.
</event>
<event>
 4    1  0.3196149E-002  0.2691525E+03  0.7818608E-02  0.1101766E+00
          1   -1    0    0  502    0  0.00000000000E+00  0.00000000000E+00  0.81771157050E+03  0.81771157050E+03  0.00000000000E+00 0. -1.
         -1   -1    0    0    0  501 -0.00000000000E+00 -0.00000000000E+00 -0.20546274849E+03  0.20546274849E+03  0.00000000000E+00 0.  1.
          6    1    1    2  502    0  0.14947701147E+03  0.14323305442E+03  0.69196253283E+03  0.74246564343E+03  0.17200000000E+03 0. -1.
         -6    1    1    2    0  501 -0.14947701147E+03 -0.14323305442E+03 -0.79713710814E+02  0.28070867555E+03  0.17200000000E+03 0.  1.
</event>
<event>
 4    1  0.3196149E-002  0.2434764E+03  0.7818608E-02  0.1117498E+00
          2   -1    0    0  502    0  0.00000000000E+00  0.00000000000E+00  0.14932794109E+04  0.14932794109E+04  0.00000000000E+00 0. -1.
         -2   -1    0    0    0  501 -0.00000000000E+00 -0.00000000000E+00 -0.74149990329E+02  0.74149990329E+02  0.00000000000E+00 0.  1.
          6    1    1    2  502    0  0.11784139922E+03  0.12573855814E+03  0.12437687624E+04  0.12673758380E+04  0.17200000000E+03 0. -1.
         -6    1    1    2    0  501 -0.11784139922E+03 -0.12573855814E+03  0.17536065813E+03  0.30005356320E+03  0.17200000000E+03 0.  1.
</event>
<event>
 4    1  0.3196149E-002  0.4213455E+03  0.7818608E-02  0.1036629E+00
          2   -1    0    0  502    0  0.00000000000E+00  0.00000000000E+00  0.21456475680E+04  0.21456475680E+04  0.00000000000E+00 0. -1.
         -2   -1    0    0    0  501 -0.00000000000E+00 -0.00000000000E+00 -0.10348786264E+03  0.10348786264E+03  0.00000000000E+00 0.  1.
          6    1    1    2  502    0  0.25619477036E+03  0.28690119388E+03  0.51755391124E+03  0.66737853311E+03  0.17200000000E+03 0. -1.
         -6    1    1    2    0  501 -0.25619477036E+03 -0.28690119388E+03  0.15246057942E+04  0.15817568976E+04  0.17200000000E+03 0.  1.
</event>
<event>
 4    1  0.3196149E-002  0.1764390E+03  0.7818608E-02  0.1171295E+00
          2   -1    0    0  502    0  0.00000000000E+00  0.00000000000E+00  0.14177071749E+04  0.14177071749E+04  0.00000000000E+00 0. -1.
         -2   -1    0    0    0  501 -0.00000000000E+00 -0.00000000000E+00 -0.95784055984E+02  0.95784055984E+02  0.00000000000E+00 0.  1.
          6    1    1    2  502    0  0.29023271411E+02 -0.26539885851E+02  0.13253264597E+04  0.13370194242E+04  0.17200000000E+03 0. -1.
         -6    1    1    2    0  501 -0.29023271411E+02  0.26539885851E+02 -0.34033408193E+01  0.17647180668E+03  0.17200000000E+03 0.  1.
</event>
<event>
 4    1  0.3196149E-002  0.2148903E+03  0.7818608E-02  0.1137751E+00
          1   -1    0    0  502    0  0.00000000000E+00  0.00000000000E+00  0.25857763859E+03  0.25857763859E+03  0.00000000000E+00 0. -1.
         -1   -1    0    0    0  501 -0.00000000000E+00 -0.00000000000E+00 -0.23869084378E+03  0.23869084378E+03  0.00000000000E+00 0.  1.
          6    1    1    2  502    0  0.91235752823E+02 -0.90938922809E+02  0.13471183109E+03  0.25362398883E+03  0.17200000000E+03 0. -1.
         -6    1    1    2    0  501 -0.91235752823E+02  0.90938922809E+02 -0.11482503628E+03  0.24364449354E+03  0.17200000000E+03 0.  1.
</event>
<event>
 4    1  0.3196149E-002  0.2664993E+03  0.7818608E-02  0.1103300E+00
         -2   -1    0    0    0  501 -0.00000000000E+00  0.00000000000E+00  0.44669737765E+02  0.44669737765E+02  0.00000000000E+00 0.  1.
          2   -1    0    0  502    0  0.00000000000E+00 -0.00000000000E+00 -0.16216790005E+04  0.16216790005E+04  0.00000000000E+00 0. -1.
          6    1    1    2  502    0 -0.29793807057E+02  0.20137079644E+03 -0.67193074698E+03  0.72285046679E+03  0.17200000000E+03 0. -1.
         -6    1    1    2    0  501  0.29793807057E+02 -0.20137079644E+03 -0.90507851576E+03  0.94349827148E+03  0.17200000000E+03 0.  1.
</event>
<event>
 4    1  0.3196149E-002  0.2128031E+03  0.7818608E-02  0.1139365E+00
         -2   -1    0    0    0  501 -0.00000000000E+00  0.00000000000E+00  0.40586778820E+02  0.40586778820E+02  0.00000000000E+00 0.  1.
          2   -1    0    0  502    0  0.00000000000E+00 -0.00000000000E+00 -0.16937468046E+04  0.16937468046E+04  0.00000000000E+00 0. -1.
          6    1    1    2  502    0  0.10422358882E+03  0.69560035091E+02 -0.13331470041E+04  0.13500244774E+04  0.17200000000E+03 0. -1.
         -6    1    1    2    0  501 -0.10422358882E+03 -0.69560035091E+02 -0.32001302167E+03  0.38430910604E+03  0.17200000000E+03 0.  1.
</event>
<event>
 4    1  0.3196149E-002  0.2684968E+03  0.7818608E-02  0.1102143E+00
          1   -1    0    0  502    0  0.00000000000E+00  0.00000000000E+00  0.24157356497E+03  0.24157356497E+03  0.00000000000E+00 0. -1.
         -1   -1    0    0    0  501 -0.00000000000E+00 -0.00000000000E+00 -0.29859419019E+03  0.29859419019E+03  0.00000000000E+00 0.  1.
          6    1    1    2  502    0  0.66726842957E+02 -0.19507445495E+03 -0.35023465475E+02  0.27077141223E+03  0.17200000000E+03 0. -1.
         -6    1    1    2    0  501 -0.66726842957E+02  0.19507445495E+03 -0.21997159752E+02  0.26939634293E+03  0.17200000000E+03 0.  1.
</event>
<event>
 4    1  0.3196149E-002  0.4370308E+03  0.7818608E-02  0.1031662E+00
          1   -1    0    0  502    0  0.00000000000E+00  0.00000000000E+00  0.13049281781E+04  0.13049281781E+04  0.00000000000E+00 0. -1.
         -1   -1    0    0    0  501 -0.00000000000E+00 -0.00000000000E+00 -0.15453818471E+03  0.15453818471E+03  0.00000000000E+00 0.  1.
          6    1    1    2  502    0 -0.35388699634E+03 -0.19019965305E+03  0.74301347669E+03  0.86201214652E+03  0.17200000000E+03 0. -1.
         -6    1    1    2    0  501  0.35388699634E+03  0.19019965305E+03  0.40737651665E+03  0.59745421625E+03  0.17200000000E+03 0.  1.
</event>
<event>
 4    1  0.3196149E-002  0.2147973E+03  0.7818608E-02  0.1137822E+00
          1   -1    0    0  502    0  0.00000000000E+00  0.00000000000E+00  0.43105493154E+03  0.43105493154E+03  0.00000000000E+00 0. -1.
         -1   -1    0    0    0  501 -0.00000000000E+00 -0.00000000000E+00 -0.19652287754E+03  0.19652287754E+03  0.00000000000E+00 0.  1.
          6    1    1    2  502    0  0.50638538398E+02  0.11827774586E+03  0.32901122392E+03  0.39292018554E+03  0.17200000000E+03 0. -1.
         -6    1    1    2    0  501 -0.50638538398E+02 -0.11827774586E+03 -0.94479169922E+02  0.23465762354E+03  0.17200000000E+03 0.  1.
</event>
<event>
 4    1  0.3196149E-002  0.1815516E+03  0.7818608E-02  0.1166310E+00
          2   -1    0    0  502    0  0.00000000000E+00  0.00000000000E+00  0.13845979545E+03  0.13845979545E+03  0.00000000000E+00 0. -1.
         -2   -1    0    0    0  501 -0.00000000000E+00 -0.00000000000E+00 -0.24833493765E+03  0.24833493765E+03  0.00000000000E+00 0.  1.
          6    1    1    2  502    0 -0.24354477546E+02 -0.52762196618E+02 -0.15588405752E+02  0.18221961575E+03  0.17200000000E+03 0. -1.
         -6    1    1    2    0  501  0.24354477546E+02  0.52762196618E+02 -0.94286736449E+02  0.20457511735E+03  0.17200000000E+03 0.  1.
</event>
<event>
 4    1  0.3196149E-002  0.1830907E+03  0.7818608E-02  0.1164845E+00
          2   -1    0    0  502    0  0.00000000000E+00  0.00000000000E+00  0.15349151350E+04  0.15349151350E+04  0.00000000000E+00 0. -1.
         -2   -1    0    0    0  501 -0.00000000000E+00 -0.00000000000E+00 -0.28547087614E+02  0.28547087614E+02  0.00000000000E+00 0.  1.
          6    1    1    2  502    0 -0.48349851432E+02 -0.40006097462E+02  0.11321069450E+04  0.11468166073E+04  0.17200000000E+03 0. -1.
         -6    1    1    2    0  501  0.48349851432E+02  0.40006097462E+02  0.37426110244E+03  0.41664561532E+03  0.17200000000E+03 0.  1.
</event>
<event>
 4    1  0.3196149E-002  0.3480460E+03  0.7818608E-02  0.1063420E+00
          2   -1    0    0  502    0  0.00000000000E+00  0.00000000000E+00  0.80857132820E+03  0.80857132820E+03  0.00000000000E+00 0. -1.
         -2   -1    0    0    0  501 -0.00000000000E+00 -0.00000000000E+00 -0.18385472125E+03  0.18385472125E+03  0.00000000000E+00 0.  1.
          6    1    1    2  502    0  0.27776673362E+03  0.11999014067E+03  0.52587149940E+03  0.63061622723E+03  0.17200000000E+03 0. -1.
         -6    1    1    2    0  501 -0.27776673362E+03 -0.11999014067E+03  0.98845107551E+02  0.36180982221E+03  0.17200000000E+03 0.  1.
</event>
<event>
 4    1  0.3196149E-002  0.2240454E+03  0.7818608E-02  0.1130902E+00
          3   -1    0    0  502    0  0.00000000000E+00  0.00000000000E+00  0.47483992610E+03  0.47483992610E+03  0.00000000000E+00 0. -1.
         -3   -1    0    0    0  501 -0.00000000000E+00 -0.00000000000E+00 -0.15335844537E+03  0.15335844537E+03  0.00000000000E+00 0.  1.
          6    1    1    2  502    0 -0.11067771121E+03 -0.91448284036E+02  0.33581712913E+03  0.40369479638E+03  0.17200000000E+03 0. -1.
         -6    1    1    2    0  501  0.11067771121E+03  0.91448284036E+02 -0.14335648401E+02  0.22450357509E+03  0.17200000000E+03 0.  1.
</event>
<event>
 4    1  0.3196149E-002  0.2503673E+03  0.7818608E-02  0.1113073E+00
         -1   -1    0    0    0  501 -0.00000000000E+00  0.00000000000E+00  0.46523417660E+03  0.46523417660E+03  0.00000000000E+00 0.  1.
          1   -1    0    0  502    0  0.00000000000E+00 -0.00000000000E+00 -0.15576606408E+03  0.15576606408E+03  0.00000000000E+00 0. -1.
          6    1    1    2  502    0 -0.10828430396E+03  0.14619950526E+03  0.40644527773E+02  0.25364495552E+03  0.17200000000E+03 0. -1.
         -6    1    1    2    0  501  0.10828430396E+03 -0.14619950526E+03  0.26882358474E+03  0.36735528516E+03  0.17200000000E+03 0.  1.
</event>
<event>
 4    1  0.3196149E-002  0.1922240E+03  0.7818608E-02  0.1156471E+00
         -2   -1    0    0    0  501 -0.00000000000E+00  0.00000000000E+00  0.14444321636E+03  0.14444321636E+03  0.00000000000E+00 0.  1.
          2   -1    0    0  502    0  0.00000000000E+00 -0.00000000000E+00 -0.11236665366E+04  0.11236665366E+04  0.00000000000E+00 0. -1.
          6    1    1    2  502    0 -0.77214266129E+02  0.37470547741E+02  0.67615118283E+02  0.20376920538E+03  0.17200000000E+03 0.  1.
         -6    1    1    2    0  501  0.77214266129E+02 -0.37470547741E+02 -0.10468384385E+04  0.10643405475E+04  0.17200000000E+03 0. -1.
</event>
<event>
 4    1  0.3196149E-002  0.1779013E+03  0.7818608E-02  0.1169850E+00
          1   -1    0    0  502    0  0.00000000000E+00  0.00000000000E+00  0.29069136394E+03  0.29069136394E+03  0.00000000000E+00 0. -1.
         -1   -1    0    0    0  501 -0.00000000000E+00 -0.00000000000E+00 -0.11996027182E+03  0.11996027182E+03  0.00000000000E+00 0.  1.
          6    1    1    2  502    0  0.36267790751E+02  0.27377120738E+02  0.22947669650E+02  0.17937517924E+03  0.17200000000E+03 0.  1.
         -6    1    1    2    0  501 -0.36267790751E+02 -0.27377120738E+02  0.14778342247E+03  0.23127645652E+03  0.17200000000E+03 0. -1.
</event>
<event>
 4    1  0.3196149E-002  0.2327879E+03  0.7818608E-02  0.1124693E+00
         -2   -1    0    0    0  501 -0.00000000000E+00  0.00000000000E+00  0.23455005979E+02  0.23455005979E+02  0.00000000000E+00 0.  1.
          2   -1    0    0  502    0  0.00000000000E+00 -0.00000000000E+00 -0.27079114176E+04  0.27079114176E+04  0.00000000000E+00 0. -1.
          6    1    1    2  502    0  0.15473471547E+03  0.25756325447E+02 -0.18654824935E+04  0.18799508382E+04  0.17200000000E+03 0. -1.
         -6    1    1    2    0  501 -0.15473471547E+03 -0.25756325447E+02 -0.81897391811E+03  0.85141558538E+03  0.17200000000E+03 0.  1.
</event>
<event>
 4    1  0.3196149E-002  0.2735972E+03  0.7818608E-02  0.1099238E+00
          1   -1    0    0  502    0  0.00000000000E+00  0.00000000000E+00  0.60507821803E+03  0.60507821803E+03  0.00000000000E+00 0. -1.
         -1   -1    0    0    0  501 -0.00000000000E+00 -0.00000000000E+00 -0.17622536379E+03  0.17622536379E+03  0.00000000000E+00 0.  1.
          6    1    1    2  502    0  0.10780707282E+03 -0.18343674008E+03  0.42767727319E+03  0.50770390245E+03  0.17200000000E+03 0. -1.
         -6    1    1    2    0  501 -0.10780707282E+03  0.18343674008E+03  0.11755810506E+01  0.27359967937E+03  0.17200000000E+03 0. -1.
</event>
<event>
 4    1  0.3196149E-002  0.2885401E+03  0.7818608E-02  0.1091114E+00
          2   -1    0    0  502    0  0.00000000000E+00  0.00000000000E+00  0.25793512159E+03  0.25793512159E+03  0.00000000000E+00 0. -1.
         -2   -1    0    0    0  501 -0.00000000000E+00 -0.00000000000E+00 -0.32405790104E+03  0.32405790104E+03  0.00000000000E+00 0.  1.
          6    1    1    2  502    0 -0.98445727581E+02 -0.20971367587E+03 -0.51360277488E+02  0.29307552820E+03  0.17200000000E+03 0. -1.
         -6    1    1    2    0  501  0.98445727581E+02  0.20971367587E+03 -0.14762501967E+02  0.28891749443E+03  0.17200000000E+03 0.  1.
</event>
<event>
 4    1  0.3196149E-002  0.1949872E+03  0.7818608E-02  0.1154039E+00
          1   -1    0    0  502    0  0.00000000000E+00  0.00000000000E+00  0.16604985269E+04  0.16604985269E+04  0.00000000000E+00 0. -1.
         -1   -1    0    0    0  501 -0.00000000000E+00 -0.00000000000E+00 -0.40050292410E+02  0.40050292410E+02  0.00000000000E+00 0.  1.
          6    1    1    2  502    0 -0.20282913614E+02 -0.89580216865E+02  0.13666831964E+04  0.13805227166E+04  0.17200000000E+03 0. -1.
         -6    1    1    2    0  501  0.20282913614E+02  0.89580216865E+02  0.25376503813E+03  0.32002610271E+03  0.17200000000E+03 0.  1.
</event>
<event>
 4    1  0.3196149E-002  0.3181014E+03  0.7818608E-02  0.1076526E+00
          2   -1    0    0  502    0  0.00000000000E+00  0.00000000000E+00  0.12939451543E+03  0.12939451543E+03  0.00000000000E+00 0. -1.
         -2   -1    0    0    0  501 -0.00000000000E+00 -0.00000000000E+00 -0.17642923519E+04  0.17642923519E+04  0.00000000000E+00 0.  1.
          6    1    1    2  502    0  0.73212633269E+02 -0.25737988313E+03 -0.11095262154E+03  0.33689609398E+03  0.17200000000E+03 0. -1.
         -6    1    1    2    0  501 -0.73212633269E+02  0.25737988313E+03 -0.15239452149E+04  0.15567907734E+04  0.17200000000E+03 0.  1.
</event>
<event>
 4    1  0.3196149E-002  0.1739727E+03  0.7818608E-02  0.1173767E+00
         -2   -1    0    0    0  501 -0.00000000000E+00  0.00000000000E+00  0.25610550304E+02  0.25610550304E+02  0.00000000000E+00 0.  1.
          2   -1    0    0  502    0  0.00000000000E+00 -0.00000000000E+00 -0.13829244567E+04  0.13829244567E+04  0.00000000000E+00 0. -1.
          6    1    1    2  502    0 -0.16957402147E+02  0.19873323770E+02 -0.94723641331E+03  0.96308012397E+03  0.17200000000E+03 0. -1.
         -6    1    1    2    0  501  0.16957402147E+02 -0.19873323770E+02 -0.41007749312E+03  0.44545488307E+03  0.17200000000E+03 0.  1.
</event>
<event>
 4    1  0.3196149E-002  0.1987454E+03  0.7818608E-02  0.1150802E+00
         -1   -1    0    0    0  501 -0.00000000000E+00  0.00000000000E+00  0.74925573553E+02  0.74925573553E+02  0.00000000000E+00 0.  1.
          1   -1    0    0  502    0  0.00000000000E+00 -0.00000000000E+00 -0.54825288633E+03  0.54825288633E+03  0.00000000000E+00 0. -1.
          6    1    1    2  502    0 -0.29469960711E+02 -0.95117082589E+02 -0.29774221378E+03  0.35798067525E+03  0.17200000000E+03 0. -1.
         -6    1    1    2    0  501  0.29469960711E+02  0.95117082589E+02 -0.17558509900E+03  0.26519778463E+03  0.17200000000E+03 0.  1.
</event>
<event>
 4    1  0.3196149E-002  0.1847594E+03  0.7818608E-02  0.1163275E+00
          2   -1    0    0  502    0  0.00000000000E+00  0.00000000000E+00  0.37914094056E+03  0.37914094056E+03  0.00000000000E+00 0. -1.
         -2   -1    0    0    0  501 -0.00000000000E+00 -0.00000000000E+00 -0.15790017730E+03  0.15790017730E+03  0.00000000000E+00 0.  1.
          6    1    1    2  502    0 -0.54831807280E+02  0.39312997134E+02  0.28665943182E+03  0.34104203361E+03  0.17200000000E+03 0. -1.
         -6    1    1    2    0  501  0.54831807280E+02 -0.39312997134E+02 -0.65418668561E+02  0.19599908426E+03  0.17200000000E+03 0.  1.
</event>
<event>
 4    1  0.3196149E-002  0.3536586E+03  0.7818608E-02  0.1061123E+00
         -2   -1    0    0    0  501 -0.00000000000E+00  0.00000000000E+00  0.14674725730E+03  0.14674725730E+03  0.00000000000E+00 0.  1.
          2   -1    0    0  502    0  0.00000000000E+00 -0.00000000000E+00 -0.10754695963E+04  0.10754695963E+04  0.00000000000E+00 0. -1.
          6    1    1    2  502    0 -0.96825745236E+02 -0.29345384543E+03 -0.74273311564E+03  0.82263410178E+03  0.17200000000E+03 0. -1.
         -6    1    1    2    0  501  0.96825745236E+02  0.29345384543E+03 -0.18598922335E+03  0.39958275181E+03  0.17200000000E+03 0.  1.
</event>
<event>
 4    1  0.3196149E-002  0.2641893E+03  0.7818608E-02  0.1104652E+00
         -4   -1    0    0    0  501 -0.00000000000E+00  0.00000000000E+00  0.68995516586E+03  0.68995516586E+03  0.00000000000E+00 0.  1.
          4   -1    0    0  502    0  0.00000000000E+00 -0.00000000000E+00 -0.14146144501E+03  0.14146144501E+03  0.00000000000E+00 0. -1.
          6    1    1    2  502    0  0.79358964877E+02  0.18415798775E+03  0.52361406812E+02  0.26932828793E+03  0.17200000000E+03 0. -1.
         -6    1    1    2    0  501 -0.79358964877E+02 -0.18415798775E+03  0.49613231404E+03  0.56208832294E+03  0.17200000000E+03 0.  1.
</event>
<event>
 4    1  0.3196149E-002  0.1891095E+03  0.7818608E-02  0.1159267E+00
          2   -1    0    0  502    0  0.00000000000E+00  0.00000000000E+00  0.14138046692E+04  0.14138046692E+04  0.00000000000E+00 0. -1.
         -2   -1    0    0    0  501 -0.00000000000E+00 -0.00000000000E+00 -0.53601258664E+02  0.53601258664E+02  0.00000000000E+00 0.  1.
          6    1    1    2  502    0 -0.76338630212E+02 -0.18730320127E+02  0.12132804270E+04  0.12279298864E+04  0.17200000000E+03 0. -1.
         -6    1    1    2    0  501  0.76338630212E+02  0.18730320127E+02  0.14692298357E+03  0.23947604151E+03  0.17200000000E+03 0.  1.
</event>
<event>
 4    1  0.3196149E-002  0.1807781E+03  0.7818608E-02  0.1167052E+00
          2   -1    0    0  502    0  0.00000000000E+00  0.00000000000E+00  0.24928507249E+02  0.24928507249E+02  0.00000000000E+00 0. -1.
         -2   -1    0    0    0  501 -0.00000000000E+00 -0.00000000000E+00 -0.14009614006E+04  0.14009614006E+04  0.00000000000E+00 0.  1.
          6    1    1    2  502    0  0.53770105747E+02 -0.14335400790E+02 -0.50733074555E+03  0.53857702640E+03  0.17200000000E+03 0. -1.
         -6    1    1    2    0  501 -0.53770105747E+02  0.14335400790E+02 -0.86870214781E+03  0.88731288145E+03  0.17200000000E+03 0.  1.
</event>
<event>
 4    1  0.3196149E-002  0.2544753E+03  0.7818608E-02  0.1110509E+00
         -2   -1    0    0    0  501 -0.00000000000E+00  0.00000000000E+00  0.31189988893E+02  0.31189988893E+02  0.00000000000E+00 0.  1.
          2   -1    0    0  502    0  0.00000000000E+00 -0.00000000000E+00 -0.28551899701E+04  0.28551899701E+04  0.00000000000E+00 0. -1.
          6    1    1    2  502    0  0.10108994324E+03 -0.15796996895E+03 -0.21658113933E+04  0.21807101318E+04  0.17200000000E+03 0. -1.
         -6    1    1    2    0  501 -0.10108994324E+03  0.15796996895E+03 -0.65818858788E+03  0.70566982713E+03  0.17200000000E+03 0.  1.
</event>
<event>
 4    1  0.3196149E-002  0.2175913E+03  0.7818608E-02  0.1135692E+00
         -2   -1    0    0    0  501 -0.00000000000E+00  0.00000000000E+00  0.13796562565E+03  0.13796562565E+03  0.00000000000E+00 0.  1.
          2   -1    0    0  502    0  0.00000000000E+00 -0.00000000000E+00 -0.11140466653E+04  0.11140466653E+04  0.00000000000E+00 0. -1.
          6    1    1    2  502    0 -0.13327239302E+03 -0.65292433485E+00 -0.10087779028E+04  0.10319781074E+04  0.17200000000E+03 0. -1.
         -6    1    1    2    0  501  0.13327239302E+03  0.65292433485E+00  0.32696863158E+02  0.22003418351E+03  0.17200000000E+03 0.  1.
</event>
<event>
 4    1  0.3196149E-002  0.2021545E+03  0.7818608E-02  0.1147934E+00
          1   -1    0    0  502    0  0.00000000000E+00  0.00000000000E+00  0.16733559370E+03  0.16733559370E+03  0.00000000000E+00 0. -1.
         -1   -1    0    0    0  501 -0.00000000000E+00 -0.00000000000E+00 -0.12072577205E+04  0.12072577205E+04  0.00000000000E+00 0.  1.
          6    1    1    2  502    0  0.97099571985E+02  0.43059302490E+02  0.93894570883E+02  0.22289598662E+03  0.17200000000E+03 0. -1.
         -6    1    1    2    0  501 -0.97099571985E+02 -0.43059302490E+02 -0.11338166977E+04  0.11516973276E+04  0.17200000000E+03 0.  1.
</event>
<event>
 4    1  0.3196149E-002  0.2344600E+03  0.7818608E-02  0.1123539E+00
         -2   -1    0    0    0  501 -0.00000000000E+00  0.00000000000E+00  0.27187000470E+03  0.27187000470E+03  0.00000000000E+00 0.  1.
          2   -1    0    0  502    0  0.00000000000E+00 -0.00000000000E+00 -0.47593297144E+03  0.47593297144E+03  0.00000000000E+00 0. -1.
          6    1    1    2  502    0  0.13671003785E+03  0.81840579228E+02 -0.38559451063E+03  0.45128111138E+03  0.17200000000E+03 0. -1.
         -6    1    1    2    0  501 -0.13671003785E+03 -0.81840579228E+02  0.18153154388E+03  0.29652186476E+03  0.17200000000E+03 0.  1.
</event>
<event>
 4    1  0.3196149E-002  0.1925631E+03  0.7818608E-02  0.1156170E+00
          1   -1    0    0  502    0  0.00000000000E+00  0.00000000000E+00  0.97192385883E+02  0.97192385883E+02  0.00000000000E+00 0. -1.
         -1   -1    0    0    0  501 -0.00000000000E+00 -0.00000000000E+00 -0.39693170072E+03  0.39693170072E+03  0.00000000000E+00 0.  1.
          6    1    1    2  502    0  0.82129341451E+02  0.27409962401E+02 -0.10118215143E+03  0.21752784312E+03  0.17200000000E+03 0. -1.
         -6    1    1    2    0  501 -0.82129341451E+02 -0.27409962401E+02 -0.19855716341E+03  0.27659624348E+03  0.17200000000E+03 0.  1.
</event>
<event>
 4    1  0.3196149E-002  0.1741798E+03  0.7818608E-02  0.1173558E+00
          2   -1    0    0  502    0  0.00000000000E+00  0.00000000000E+00  0.23720014082E+03  0.23720014082E+03  0.00000000000E+00 0. -1.
         -2   -1    0    0    0  501 -0.00000000000E+00 -0.00000000000E+00 -0.29296556196E+03  0.29296556196E+03  0.00000000000E+00 0.  1.
          6    1    1    2  502    0 -0.14450175287E+02 -0.23362032434E+02  0.17109193289E+03  0.24415372540E+03  0.17200000000E+03 0. -1.
         -6    1    1    2    0  501  0.14450175287E+02  0.23362032434E+02 -0.22685735404E+03  0.28601197738E+03  0.17200000000E+03 0.  1.
</event>
<event>
 4    1  0.3196149E-002  0.2120973E+03  0.7818608E-02  0.1139916E+00
         -2   -1    0    0    0  501 -0.00000000000E+00  0.00000000000E+00  0.10837050502E+03  0.10837050502E+03  0.00000000000E+00 0.  1.
          2   -1    0    0  502    0  0.00000000000E+00 -0.00000000000E+00 -0.48973050138E+03  0.48973050138E+03  0.00000000000E+00 0. -1.
          6    1    1    2  502    0 -0.10656450105E+03 -0.63602534594E+02 -0.30741629664E+03  0.37348367398E+03  0.17200000000E+03 0. -1.
         -6    1    1    2    0  501  0.10656450105E+03  0.63602534594E+02 -0.73943699718E+02  0.22461733241E+03  0.17200000000E+03 0.  1.
</event>
<event>
 4    1  0.3196149E-002  0.4815215E+03  0.7818608E-02  0.1018718E+00
         -1   -1    0    0    0  501 -0.00000000000E+00  0.00000000000E+00  0.82865496510E+03  0.82865496510E+03  0.00000000000E+00 0.  1.
          1   -1    0    0  502    0  0.00000000000E+00 -0.00000000000E+00 -0.28054860667E+03  0.28054860667E+03  0.00000000000E+00 0. -1.
          6    1    1    2  502    0 -0.15135616682E+02 -0.44949953594E+03  0.30258009274E+03  0.56869819081E+03  0.17200000000E+03 0. -1.
         -6    1    1    2    0  501  0.15135616682E+02  0.44949953594E+03  0.24552626568E+03  0.54050538096E+03  0.17200000000E+03 0.  1.
</event>
<event>
 4    1  0.3196149E-002  0.2092022E+03  0.7818608E-02  0.1142199E+00
         -1   -1    0    0    0  501 -0.00000000000E+00  0.00000000000E+00  0.38887930389E+03  0.38887930389E+03  0.00000000000E+00 0.  1.
          1   -1    0    0  502    0  0.00000000000E+00 -0.00000000000E+00 -0.16346909578E+03  0.16346909578E+03  0.00000000000E+00 0. -1.
          6    1    1    2  502    0  0.10029791004E+03  0.64201866618E+02 -0.41442396025E+02  0.21326749078E+03  0.17200000000E+03 0. -1.
         -6    1    1    2    0  501 -0.10029791004E+03 -0.64201866618E+02  0.26685260414E+03  0.33908090889E+03  0.17200000000E+03 0.  1.
</event>
<event>
 4    1  0.3196149E-002  0.2539474E+03  0.7818608E-02  0.1110835E+00
          2   -1    0    0  502    0  0.00000000000E+00  0.00000000000E+00  0.99635606145E+03  0.99635606145E+03  0.00000000000E+00 0. -1.
         -2   -1    0    0    0  501 -0.00000000000E+00 -0.00000000000E+00 -0.10713441395E+03  0.10713441395E+03  0.00000000000E+00 0.  1.
          6    1    1    2  502    0 -0.15354186520E+03  0.10644320793E+03  0.79175080824E+03  0.83147976718E+03  0.17200000000E+03 0. -1.
         -6    1    1    2    0  501  0.15354186520E+03 -0.10644320793E+03  0.97470839258E+02  0.27201070822E+03  0.17200000000E+03 0.  1.
</event>
<event>
 4    1  0.3196149E-002  0.3536475E+03  0.7818608E-02  0.1061128E+00
         -2   -1    0    0    0  501 -0.00000000000E+00  0.00000000000E+00  0.43256727507E+02  0.43256727507E+02  0.00000000000E+00 0.  1.
          2   -1    0    0  502    0  0.00000000000E+00 -0.00000000000E+00 -0.29589242516E+04  0.29589242516E+04  0.00000000000E+00 0. -1.
          6    1    1    2  502    0 -0.30495457140E+03 -0.49852126154E+02 -0.16848274185E+04  0.17215428996E+04  0.17200000000E+03 0. -1.
         -6    1    1    2    0  501  0.30495457140E+03  0.49852126154E+02 -0.12308401056E+04  0.12806380795E+04  0.17200000000E+03 0.  1.
</event>
<event>
 4    1  0.3196149E-002  0.2327271E+03  0.7818608E-02  0.1124735E+00
         -4   -1    0    0    0  501 -0.00000000000E+00  0.00000000000E+00  0.38272277654E+03  0.38272277654E+03  0.00000000000E+00 0.  1.
          4   -1    0    0  502    0  0.00000000000E+00 -0.00000000000E+00 -0.16963145873E+03  0.16963145873E+03  0.00000000000E+00 0. -1.
          6    1    1    2  502    0 -0.14782090840E+03  0.52219613802E+02 -0.58881017393E+01  0.23280158669E+03  0.17200000000E+03 0. -1.
         -6    1    1    2    0  501  0.14782090840E+03 -0.52219613802E+02  0.21897941955E+03  0.31955264857E+03  0.17200000000E+03 0.  1.
</event>
<event>
 4    1  0.3196149E-002  0.2154798E+03  0.7818608E-02  0.1137299E+00
         -2   -1    0    0    0  501 -0.00000000000E+00  0.00000000000E+00  0.64303015380E+03  0.64303015380E+03  0.00000000000E+00 0.  1.
          2   -1    0    0  502    0  0.00000000000E+00 -0.00000000000E+00 -0.81166158417E+02  0.81166158417E+02  0.00000000000E+00 0. -1.
          6    1    1    2  502    0  0.34795405447E+02 -0.12504722681E+03  0.40123126158E+03  0.45543172314E+03  0.17200000000E+03 0. -1.
         -6    1    1    2    0  501 -0.34795405447E+02  0.12504722681E+03  0.16063273380E+03  0.26876458908E+03  0.17200000000E+03 0. -1.
</event>
<event>
 4    1  0.3196149E-002  0.7034545E+03  0.7818608E-02  0.9711343E-01
         -1   -1    0    0    0  501 -0.00000000000E+00  0.00000000000E+00  0.16297403323E+04  0.16297403323E+04  0.00000000000E+00 0.  1.
          1   -1    0    0  502    0  0.00000000000E+00 -0.00000000000E+00 -0.30703004934E+03  0.30703004934E+03  0.00000000000E+00 0. -1.
          6    1    1    2  502    0  0.55517131385E+03 -0.39629409748E+03  0.55954231643E+03  0.89885249251E+03  0.17200000000E+03 0. -1.
         -6    1    1    2    0  501 -0.55517131385E+03  0.39629409748E+03  0.76316796648E+03  0.10379178891E+04  0.17200000000E+03 0.  1.
</event>
<event>
 4    1  0.3196149E-002  0.1907544E+03  0.7818608E-02  0.1157783E+00
          2   -1    0    0  502    0  0.00000000000E+00  0.00000000000E+00  0.92095641306E+03  0.92095641306E+03  0.00000000000E+00 0. -1.
         -2   -1    0    0    0  501 -0.00000000000E+00 -0.00000000000E+00 -0.76071036484E+02  0.76071036484E+02  0.00000000000E+00 0.  1.
          6    1    1    2  502    0 -0.50990548455E+02 -0.64832098635E+02  0.76804377184E+03  0.79137757898E+03  0.17200000000E+03 0. -1.
         -6    1    1    2    0  501  0.50990548455E+02  0.64832098635E+02  0.76841604731E+02  0.20564987056E+03  0.17200000000E+03 0.  1.
</event>
<event>
 4    1  0.3196149E-002  0.1892426E+03  0.7818608E-02  0.1159146E+00
          2   -1    0    0  502    0  0.00000000000E+00  0.00000000000E+00  0.16229935326E+04  0.16229935326E+04  0.00000000000E+00 0. -1.
         -2   -1    0    0    0  501 -0.00000000000E+00 -0.00000000000E+00 -0.22247268264E+02  0.22247268264E+02  0.00000000000E+00 0.  1.
          6    1    1    2  502    0  0.74822335588E+02  0.25107475738E+02  0.87465375281E+03  0.89489214688E+03  0.17200000000E+03 0. -1.
         -6    1    1    2    0  501 -0.74822335588E+02 -0.25107475738E+02  0.72609251149E+03  0.75034865395E+03  0.17200000000E+03 0.  1.
</event>
<event>
 4    1  0.3196149E-002  0.3123515E+03  0.7818608E-02  0.1079224E+00
          2   -1    0    0  502    0  0.00000000000E+00  0.00000000000E+00  0.41081146161E+02  0.41081146161E+02  0.00000000000E+00 0. -1.
         -2   -1    0    0    0  501 -0.00000000000E+00 -0.00000000000E+00 -0.23760143294E+04  0.23760143294E+04  0.00000000000E+00 0.  1.
          6    1    1    2  502    0  0.98329543885E+02  0.24147616416E+03 -0.11936896816E+04  0.12338794484E+04  0.17200000000E+03 0. -1.
         -6    1    1    2    0  501 -0.98329543885E+02 -0.24147616416E+03 -0.11412435016E+04  0.11832160272E+04  0.17200000000E+03 0.  1.
</event>
<event>
 4    1  0.3196149E-002  0.2885872E+03  0.7818608E-02  0.1091089E+00
         -1   -1    0    0    0  501 -0.00000000000E+00  0.00000000000E+00  0.15566050488E+03  0.15566050488E+03  0.00000000000E+00 0.  1.
          1   -1    0    0  502    0  0.00000000000E+00 -0.00000000000E+00 -0.62082410612E+03  0.62082410612E+03  0.00000000000E+00 0. -1.
          6    1    1    2  502    0 -0.64221259512E+02  0.22265265708E+03 -0.37691121301E+03  0.47470479076E+03  0.17200000000E+03 0. -1.
         -6    1    1    2    0  501  0.64221259512E+02 -0.22265265708E+03 -0.88252388230E+02  0.30177982024E+03  0.17200000000E+03 0.  1.
</event>
<event>
 4    1  0.3196149E-002  0.1867943E+03  0.7818608E-02  0.1161385E+00
         -2   -1    0    0    0  501 -0.00000000000E+00  0.00000000000E+00  0.56629415379E+03  0.56629415379E+03  0.00000000000E+00 0.  1.
          2   -1    0    0  502    0  0.00000000000E+00 -0.00000000000E+00 -0.64019423865E+02  0.64019423865E+02  0.00000000000E+00 0. -1.
          6    1    1    2  502    0 -0.38904578981E+01 -0.72752800292E+02  0.19005812403E+03  0.26648488911E+03  0.17200000000E+03 0. -1.
         -6    1    1    2    0  501  0.38904578981E+01  0.72752800292E+02  0.31221660589E+03  0.36382868854E+03  0.17200000000E+03 0.  1.
</event>
<event>
 4    1  0.3196149E-002  0.2219683E+03  0.7818608E-02  0.1132424E+00
         -2   -1    0    0    0  501 -0.00000000000E+00  0.00000000000E+00  0.51210797462E+02  0.51210797462E+02  0.00000000000E+00 0.  1.
          2   -1    0    0  502    0  0.00000000000E+00 -0.00000000000E+00 -0.15153823644E+04  0.15153823644E+04  0.00000000000E+00 0. -1.
          6    1    1    2  502    0 -0.14030559718E+03  0.49566863861E+00 -0.25878355946E+03  0.34093817172E+03  0.17200000000E+03 0.  1.
         -6    1    1    2    0  501  0.14030559718E+03 -0.49566863861E+00 -0.12053880075E+04  0.12256549901E+04  0.17200000000E+03 0. -1.
</event>
<event>
 4    1  0.3196149E-002  0.2184166E+03  0.7818608E-02  0.1135069E+00
          1   -1    0    0  502    0  0.00000000000E+00  0.00000000000E+00  0.31463516908E+03  0.31463516908E+03  0.00000000000E+00 0. -1.
         -1   -1    0    0    0  501 -0.00000000000E+00 -0.00000000000E+00 -0.19879650219E+03  0.19879650219E+03  0.00000000000E+00 0.  1.
          6    1    1    2  502    0  0.36558598139E+02  0.12955806675E+03  0.18297370505E+03  0.28493016776E+03  0.17200000000E+03 0. -1.
         -6    1    1    2    0  501 -0.36558598139E+02 -0.12955806675E+03 -0.67135038159E+02  0.22850150351E+03  0.17200000000E+03 0.  1.
</event>
<event>
 4    1  0.3196149E-002  0.2980423E+03  0.7818608E-02  0.1086223E+00
         -2   -1    0    0    0  501 -0.00000000000E+00  0.00000000000E+00  0.21054491996E+02  0.21054491996E+02  0.00000000000E+00 0.  1.
          2   -1    0    0  502    0  0.00000000000E+00 -0.00000000000E+00 -0.42190893329E+04  0.42190893329E+04  0.00000000000E+00 0. -1.
          6    1    1    2  502    0  0.17127067000E+03  0.17294957799E+03 -0.21079689997E+04  0.21289345934E+04  0.17200000000E+03 0. -1.
         -6    1    1    2    0  501 -0.17127067000E+03 -0.17294957799E+03 -0.20900658411E+04  0.21112092315E+04  0.17200000000E+03 0.  1.
</event>
<event>
 4    1  0.3196149E-002  0.4562800E+03  0.7818608E-02  0.1025866E+00
         -2   -1    0    0    0  501 -0.00000000000E+00  0.00000000000E+00  0.18256710871E+03  0.18256710871E+03  0.00000000000E+00 0.  1.
          2   -1    0    0  502    0  0.00000000000E+00 -0.00000000000E+00 -0.13749985508E+04  0.13749985508E+04  0.00000000000E+00 0. -1.
          6    1    1    2  502    0 -0.45999872495E+02  0.42010881901E+03 -0.91792907486E+03  0.10250781407E+04  0.17200000000E+03 0. -1.
         -6    1    1    2    0  501  0.45999872495E+02 -0.42010881901E+03 -0.27450236724E+03  0.53248751882E+03  0.17200000000E+03 0.  1.
</event>
<event>
 4    1  0.3196149E-002  0.1862584E+03  0.7818608E-02  0.1161880E+00
          1   -1    0    0  502    0  0.00000000000E+00  0.00000000000E+00  0.15012695028E+04  0.15012695028E+04  0.00000000000E+00 0. -1.
         -1   -1    0    0    0  501 -0.00000000000E+00 -0.00000000000E+00 -0.28811261450E+02  0.28811261450E+02  0.00000000000E+00 0.  1.
          6    1    1    2  502    0  0.70319335138E+02  0.12782542625E+02  0.10765925445E+04  0.10925857903E+04  0.17200000000E+03 0. -1.
         -6    1    1    2    0  501 -0.70319335138E+02 -0.12782542625E+02  0.39586569687E+03  0.43749497397E+03  0.17200000000E+03 0.  1.
</event>
<event>
 4    1  0.3196149E-002  0.3052782E+03  0.7818608E-02  0.1082631E+00
         -2   -1    0    0    0  501 -0.00000000000E+00  0.00000000000E+00  0.41807878276E+03  0.41807878276E+03  0.00000000000E+00 0.  1.
          2   -1    0    0  502    0  0.00000000000E+00 -0.00000000000E+00 -0.28409021638E+03  0.28409021638E+03  0.00000000000E+00 0. -1.
          6    1    1    2  502    0 -0.69639228893E+02  0.24240703134E+03 -0.95928495548E+02  0.31999541763E+03  0.17200000000E+03 0. -1.
         -6    1    1    2    0  501  0.69639228893E+02 -0.24240703134E+03  0.22991706193E+03  0.38217358152E+03  0.17200000000E+03 0.  1.
</event>
<event>
 4    1  0.3196149E-002  0.1848423E+03  0.7818608E-02  0.1163197E+00
          1   -1    0    0  502    0  0.00000000000E+00  0.00000000000E+00  0.78169396497E+03  0.78169396497E+03  0.00000000000E+00 0. -1.
         -1   -1    0    0    0  501 -0.00000000000E+00 -0.00000000000E+00 -0.43813100424E+02  0.43813100424E+02  0.00000000000E+00 0.  1.
          6    1    1    2  502    0  0.10220703235E+01 -0.67687753433E+02  0.34877350212E+03  0.39472728861E+03  0.17200000000E+03 0. -1.
         -6    1    1    2    0  501 -0.10220703235E+01  0.67687753433E+02  0.38910736243E+03  0.43077977679E+03  0.17200000000E+03 0. -1.
</event>
<event>
 4    1  0.3196149E-002  0.2492755E+03  0.7818608E-02  0.1113764E+00
         -2   -1    0    0    0  501 -0.00000000000E+00  0.00000000000E+00  0.10959541499E+04  0.10959541499E+04  0.00000000000E+00 0.  1.
          2   -1    0    0  502    0  0.00000000000E+00 -0.00000000000E+00 -0.71190119020E+02  0.71190119020E+02  0.00000000000E+00 0. -1.
          6    1    1    2  502    0  0.96547162968E+02  0.15242353934E+03  0.24908117154E+03  0.35239143014E+03  0.17200000000E+03 0. -1.
         -6    1    1    2    0  501 -0.96547162968E+02 -0.15242353934E+03  0.77568285936E+03  0.81475283880E+03  0.17200000000E+03 0.  1.
</event>
<event>
 4    1  0.3196149E-002  0.1756311E+03  0.7818608E-02  0.1172099E+00
         -2   -1    0    0    0  501 -0.00000000000E+00  0.00000000000E+00  0.55282836066E+02  0.55282836066E+02  0.00000000000E+00 0.  1.
          2   -1    0    0  502    0  0.00000000000E+00 -0.00000000000E+00 -0.61374220963E+03  0.61374220963E+03  0.00000000000E+00 0. -1.
          6    1    1    2  502    0  0.20390501526E+02  0.29095155167E+02 -0.38006640238E+03  0.41868457199E+03  0.17200000000E+03 0. -1.
         -6    1    1    2    0  501 -0.20390501526E+02 -0.29095155167E+02 -0.17839297119E+03  0.25034047371E+03  0.17200000000E+03 0.  1.
</event>
<event>
 4    1  0.3196149E-002  0.4522183E+03  0.7818608E-02  0.1027063E+00
          3   -1    0    0  502    0  0.00000000000E+00  0.00000000000E+00  0.40174587732E+03  0.40174587732E+03  0.00000000000E+00 0. -1.
         -3   -1    0    0    0  501 -0.00000000000E+00 -0.00000000000E+00 -0.51394908663E+03  0.51394908663E+03  0.00000000000E+00 0.  1.
          6    1    1    2  502    0  0.37183851563E+03  0.19145097367E+03 -0.10088646688E+03  0.46333512302E+03  0.17200000000E+03 0. -1.
         -6    1    1    2    0  501 -0.37183851563E+03 -0.19145097367E+03 -0.11316742427E+02  0.45235984093E+03  0.17200000000E+03 0.  1.
</event>
<event>
 4    1  0.3196149E-002  0.1951972E+03  0.7818608E-02  0.1153856E+00
         -2   -1    0    0    0  501 -0.00000000000E+00  0.00000000000E+00  0.12524353595E+03  0.12524353595E+03  0.00000000000E+00 0.  1.
          2   -1    0    0  502    0  0.00000000000E+00 -0.00000000000E+00 -0.30488135602E+03  0.30488135602E+03  0.00000000000E+00 0. -1.
          6    1    1    2  502    0  0.92270526761E+02  0.20263793790E+01 -0.99813164326E+02  0.21923645704E+03  0.17200000000E+03 0.  1.
         -6    1    1    2    0  501 -0.92270526761E+02 -0.20263793790E+01 -0.79824655743E+02  0.21088843493E+03  0.17200000000E+03 0. -1.
</event>
<event>
 4    1  0.3196149E-002  0.2496623E+03  0.7818608E-02  0.1113518E+00
          1   -1    0    0  502    0  0.00000000000E+00  0.00000000000E+00  0.75218304188E+02  0.75218304188E+02  0.00000000000E+00 0. -1.
         -1   -1    0    0    0  501 -0.00000000000E+00 -0.00000000000E+00 -0.94833344547E+03  0.94833344547E+03  0.00000000000E+00 0.  1.
          6    1    1    2  502    0  0.75749949851E+02  0.16434483121E+03 -0.25476464459E+03  0.35670198006E+03  0.17200000000E+03 0. -1.
         -6    1    1    2    0  501 -0.75749949851E+02 -0.16434483121E+03 -0.61835049670E+03  0.66684976960E+03  0.17200000000E+03 0.  1.
</event>
<event>
 4    1  0.3196149E-002  0.2301421E+03  0.7818608E-02  0.1126540E+00
         -2   -1    0    0    0  501 -0.00000000000E+00  0.00000000000E+00  0.27054800819E+02  0.27054800819E+02  0.00000000000E+00 0.  1.
          2   -1    0    0  502    0  0.00000000000E+00 -0.00000000000E+00 -0.26791147373E+04  0.26791147373E+04  0.00000000000E+00 0. -1.
          6    1    1    2  502    0  0.12080593820E+03 -0.93740763794E+02 -0.20281629672E+04  0.20411786857E+04  0.17200000000E+03 0. -1.
         -6    1    1    2    0  501 -0.12080593820E+03  0.93740763794E+02 -0.62389696930E+03  0.66499085242E+03  0.17200000000E+03 0. -1.
</event>
<event>
 4    1  0.3196149E-002  0.3492001E+03  0.7818608E-02  0.1062944E+00
         -2   -1    0    0    0  501 -0.00000000000E+00  0.00000000000E+00  0.40945325506E+02  0.40945325506E+02  0.00000000000E+00 0.  1.
          2   -1    0    0  502    0  0.00000000000E+00 -0.00000000000E+00 -0.29782440965E+04  0.29782440965E+04  0.00000000000E+00 0. -1.
          6    1    1    2  502    0  0.24127223895E+03 -0.18478208673E+03 -0.14595187892E+04  0.15007117674E+04  0.17200000000E+03 0. -1.
         -6    1    1    2    0  501 -0.24127223895E+03  0.18478208673E+03 -0.14777799818E+04  0.15184776546E+04  0.17200000000E+03 0.  1.
</event>
<event>
 4    1  0.3196149E-002  0.3032814E+03  0.7818608E-02  0.1083612E+00
         -2   -1    0    0    0  501 -0.00000000000E+00  0.00000000000E+00  0.35735750533E+03  0.35735750533E+03  0.00000000000E+00 0.  1.
          2   -1    0    0  502    0  0.00000000000E+00 -0.00000000000E+00 -0.26227834485E+03  0.26227834485E+03  0.00000000000E+00 0. -1.
          6    1    1    2  502    0 -0.21147174951E+03  0.13294852499E+03  0.52351909963E+01  0.30332658697E+03  0.17200000000E+03 0. -1.
         -6    1    1    2    0  501  0.21147174951E+03 -0.13294852499E+03  0.89843969489E+02  0.31630926321E+03  0.17200000000E+03 0.  1.
</event>
<event>
 4    1  0.3196149E-002  0.2519021E+03  0.7818608E-02  0.1112109E+00
          2   -1    0    0  502    0  0.00000000000E+00  0.00000000000E+00  0.17399355306E+04  0.17399355306E+04  0.00000000000E+00 0. -1.
         -2   -1    0    0    0  501 -0.00000000000E+00 -0.00000000000E+00 -0.54255321203E+02  0.54255321203E+02  0.00000000000E+00 0.  1.
          6    1    1    2  502    0 -0.16501024764E+03  0.81500114970E+02  0.32920590789E+03  0.41452524695E+03  0.17200000000E+03 0.  1.
         -6    1    1    2    0  501  0.16501024764E+03 -0.81500114970E+02  0.13564743015E+04  0.13796656049E+04  0.17200000000E+03 0. -1.
</event>
<event>
 4    1  0.3196149E-002  0.2983276E+03  0.7818608E-02  0.1086080E+00
         -1   -1    0    0    0  501 -0.00000000000E+00  0.00000000000E+00  0.70153613511E+02  0.70153613511E+02  0.00000000000E+00 0.  1.
          1   -1    0    0  502    0  0.00000000000E+00 -0.00000000000E+00 -0.13157916052E+04  0.13157916052E+04  0.00000000000E+00 0. -1.
          6    1    1    2  502    0 -0.11024986257E+03 -0.21739445496E+03 -0.75400586918E+03  0.81087867896E+03  0.17200000000E+03 0. -1.
         -6    1    1    2    0  501  0.11024986257E+03  0.21739445496E+03 -0.49163212248E+03  0.57506653972E+03  0.17200000000E+03 0.  1.
</event>
<event>
 4    1  0.3196149E-002  0.2041941E+03  0.7818608E-02  0.1146248E+00
         -2   -1    0    0    0  501 -0.00000000000E+00  0.00000000000E+00  0.92081777645E+02  0.92081777645E+02  0.00000000000E+00 0.  1.
          2   -1    0    0  502    0  0.00000000000E+00 -0.00000000000E+00 -0.50379601348E+03  0.50379601348E+03  0.00000000000E+00 0. -1.
          6    1    1    2  502    0 -0.83566540308E+02  0.71609138910E+02 -0.30064218134E+03  0.36342943832E+03  0.17200000000E+03 0. -1.
         -6    1    1    2    0  501  0.83566540308E+02 -0.71609138910E+02 -0.11107205450E+03  0.23244835281E+03  0.17200000000E+03 0.  1.
</event>
<event>
 4    1  0.3196149E-002  0.2847293E+03  0.7818608E-02  0.1093134E+00
          2   -1    0    0  502    0  0.00000000000E+00  0.00000000000E+00  0.43958014663E+04  0.43958014663E+04  0.00000000000E+00 0. -1.
         -2   -1    0    0    0  501 -0.00000000000E+00 -0.00000000000E+00 -0.19896040207E+02  0.19896040207E+02  0.00000000000E+00 0.  1.
          6    1    1    2  502    0  0.12234541377E+03 -0.19109787305E+03  0.27846550702E+04  0.27991739241E+04  0.17200000000E+03 0. -1.
         -6    1    1    2    0  501 -0.12234541377E+03  0.19109787305E+03  0.15912503559E+04  0.16165235824E+04  0.17200000000E+03 0.  1.
</event>
<event>
 4    1  0.3196149E-002  0.1953213E+03  0.7818608E-02  0.1153748E+00
          1   -1    0    0  502    0  0.00000000000E+00  0.00000000000E+00  0.26813873272E+03  0.26813873272E+03  0.00000000000E+00 0. -1.
         -1   -1    0    0    0  501 -0.00000000000E+00 -0.00000000000E+00 -0.21267946059E+03  0.21267946059E+03  0.00000000000E+00 0.  1.
          6    1    1    2  502    0  0.14606662749E+02  0.91395021113E+02 -0.11058785230E+03  0.22445506801E+03  0.17200000000E+03 0.  1.
         -6    1    1    2    0  501 -0.14606662749E+02 -0.91395021113E+02  0.16604712442E+03  0.25636312529E+03  0.17200000000E+03 0. -1.
</event>
<event>
 4    1  0.3196149E-002  0.2030425E+03  0.7818608E-02  0.1147197E+00
          1   -1    0    0  502    0  0.00000000000E+00  0.00000000000E+00  0.30772125386E+04  0.30772125386E+04  0.00000000000E+00 0. -1.
         -1   -1    0    0    0  501 -0.00000000000E+00 -0.00000000000E+00 -0.16460778672E+02  0.16460778672E+02  0.00000000000E+00 0.  1.
          6    1    1    2  502    0  0.95099713992E+02 -0.50973600471E+02  0.21976871341E+04  0.22070466699E+04  0.17200000000E+03 0. -1.
         -6    1    1    2    0  501 -0.95099713992E+02  0.50973600471E+02  0.86306462578E+03  0.88662664737E+03  0.17200000000E+03 0. -1.
</event>
<event>
 4    1  0.3196149E-002  0.2848858E+03  0.7818608E-02  0.1093050E+00
         -1   -1    0    0    0  501 -0.00000000000E+00  0.00000000000E+00  0.33923354282E+03  0.33923354282E+03  0.00000000000E+00 0.  1.
          1   -1    0    0  502    0  0.00000000000E+00 -0.00000000000E+00 -0.24264158722E+03  0.24264158722E+03  0.00000000000E+00 0. -1.
          6    1    1    2  502    0 -0.21081673268E+03 -0.84452348077E+02  0.13873258346E+02  0.28522335313E+03  0.17200000000E+03 0. -1.
         -6    1    1    2    0  501  0.21081673268E+03  0.84452348077E+02  0.82718697253E+02  0.29665177692E+03  0.17200000000E+03 0. -1.
</event>
<event>
 4    1  0.3196149E-002  0.2418277E+03  0.7818608E-02  0.1118581E+00
          2   -1    0    0  502    0  0.00000000000E+00  0.00000000000E+00  0.17053019705E+04  0.17053019705E+04  0.00000000000E+00 0. -1.
         -2   -1    0    0    0  501 -0.00000000000E+00 -0.00000000000E+00 -0.54248984933E+02  0.54248984933E+02  0.00000000000E+00 0.  1.
          6    1    1    2  502    0  0.65629285155E+02  0.15681021527E+03  0.13591168764E+04  0.13804634477E+04  0.17200000000E+03 0. -1.
         -6    1    1    2    0  501 -0.65629285155E+02 -0.15681021527E+03  0.29193610911E+03  0.37908750769E+03  0.17200000000E+03 0.  1.
</event>
<event>
 4    1  0.3196149E-002  0.2054629E+03  0.7818608E-02  0.1145210E+00
         -2   -1    0    0    0  501 -0.00000000000E+00  0.00000000000E+00  0.29296006012E+02  0.29296006012E+02  0.00000000000E+00 0.  1.
          2   -1    0    0  502    0  0.00000000000E+00 -0.00000000000E+00 -0.15216180367E+04  0.15216180367E+04  0.00000000000E+00 0. -1.
          6    1    1    2  502    0 -0.10794209113E+03  0.31296811561E+02 -0.56764695571E+03  0.60368704788E+03  0.17200000000E+03 0.  1.
         -6    1    1    2    0  501  0.10794209113E+03 -0.31296811561E+02 -0.92467507499E+03  0.94722699484E+03  0.17200000000E+03 0.  1.
</event>
<event>
 4    1  0.3196149E-002  0.4004118E+03  0.7818608E-02  0.1043637E+00
          2   -1    0    0  502    0  0.00000000000E+00  0.00000000000E+00  0.29380858340E+03  0.29380858340E+03  0.00000000000E+00 0. -1.
         -2   -1    0    0    0  501 -0.00000000000E+00 -0.00000000000E+00 -0.67743829575E+03  0.67743829575E+03  0.00000000000E+00 0.  1.
          6    1    1    2  502    0  0.16972265721E+03 -0.31928013506E+03  0.22341346241E+02  0.40103456306E+03  0.17200000000E+03 0. -1.
         -6    1    1    2    0  501 -0.16972265721E+03  0.31928013506E+03 -0.40597105858E+03  0.57021231609E+03  0.17200000000E+03 0.  1.
</event>
<event>
 4    1  0.3196149E-002  0.1968575E+03  0.7818608E-02  0.1152418E+00
          2   -1    0    0  502    0  0.00000000000E+00  0.00000000000E+00  0.13730481457E+03  0.13730481457E+03  0.00000000000E+00 0. -1.
         -2   -1    0    0    0  501 -0.00000000000E+00 -0.00000000000E+00 -0.28767996291E+03  0.28767996291E+03  0.00000000000E+00 0.  1.
          6    1    1    2  502    0 -0.64473060236E+02  0.70796101558E+02 -0.10440892660E+03  0.22283197133E+03  0.17200000000E+03 0. -1.
         -6    1    1    2    0  501  0.64473060236E+02 -0.70796101558E+02 -0.45966221746E+02  0.20215280615E+03  0.17200000000E+03 0. -1.
</event>
<event>
 4    1  0.3196149E-002  0.6586344E+03  0.7818608E-02  0.9790711E-01
         -2   -1    0    0    0  501 -0.00000000000E+00  0.00000000000E+00  0.20680527255E+03  0.20680527255E+03  0.00000000000E+00 0.  1.
          2   -1    0    0  502    0  0.00000000000E+00 -0.00000000000E+00 -0.23443312500E+04  0.23443312500E+04  0.00000000000E+00 0. -1.
          6    1    1    2  502    0  0.27975092609E+03 -0.57092444532E+03 -0.14825595481E+04  0.16222768310E+04  0.17200000000E+03 0. -1.
         -6    1    1    2    0  501 -0.27975092609E+03  0.57092444532E+03 -0.65496642937E+03  0.92885969151E+03  0.17200000000E+03 0.  1.
</event>
<event>
 4    1  0.3196149E-002  0.2003665E+03  0.7818608E-02  0.1149430E+00
         -1   -1    0    0    0  501 -0.00000000000E+00  0.00000000000E+00  0.11492968120E+04  0.11492968120E+04  0.00000000000E+00 0.  1.
          1   -1    0    0  502    0  0.00000000000E+00 -0.00000000000E+00 -0.55731150832E+02  0.55731150832E+02  0.00000000000E+00 0. -1.
          6    1    1    2  502    0  0.88780590518E+02 -0.51775707052E+02  0.17869993083E+03  0.26847789922E+03  0.17200000000E+03 0. -1.
         -6    1    1    2    0  501 -0.88780590518E+02  0.51775707052E+02  0.91486573030E+03  0.93655006357E+03  0.17200000000E+03 0.  1.
</event>
<event>
 4    1  0.3196149E-002  0.2793662E+03  0.7818608E-02  0.1096036E+00
         -2   -1    0    0    0  501 -0.00000000000E+00  0.00000000000E+00  0.57778689688E+03  0.57778689688E+03  0.00000000000E+00 0.  1.
          2   -1    0    0  502    0  0.00000000000E+00 -0.00000000000E+00 -0.13564619486E+03  0.13564619486E+03  0.00000000000E+00 0. -1.
          6    1    1    2  502    0 -0.15924622142E+03 -0.15199371081E+03  0.19795340553E+03  0.34239012533E+03  0.17200000000E+03 0. -1.
         -6    1    1    2    0  501  0.15924622142E+03  0.15199371081E+03  0.24418729649E+03  0.37104296642E+03  0.17200000000E+03 0. -1.
</event>
<event>
 4    1  0.3196149E-002  0.1972646E+03  0.7818608E-02  0.1152068E+00
         -2   -1    0    0    0  501 -0.00000000000E+00  0.00000000000E+00  0.61556291250E+02  0.61556291250E+02  0.00000000000E+00 0.  1.
          2   -1    0    0  502    0  0.00000000000E+00 -0.00000000000E+00 -0.80162456446E+03  0.80162456446E+03  0.00000000000E+00 0. -1.
          6    1    1    2  502    0 -0.86043963569E+02 -0.43883267043E+02 -0.56847369380E+03  0.60172721838E+03  0.17200000000E+03 0. -1.
         -6    1    1    2    0  501  0.86043963569E+02  0.43883267043E+02 -0.17159457941E+03  0.26145363734E+03  0.17200000000E+03 0.  1.
</event>
<event>
 4    1  0.3196149E-002  0.2269549E+03  0.7818608E-02  0.1128802E+00
         -1   -1    0    0    0  501 -0.00000000000E+00  0.00000000000E+00  0.68689053318E+02  0.68689053318E+02  0.00000000000E+00 0.  1.
          1   -1    0    0  502    0  0.00000000000E+00 -0.00000000000E+00 -0.10427000814E+04  0.10427000814E+04  0.00000000000E+00 0. -1.
          6    1    1    2  502    0  0.10297255700E+03  0.10640112817E+03 -0.78148623850E+03  0.81377471608E+03  0.17200000000E+03 0. -1.
         -6    1    1    2    0  501 -0.10297255700E+03 -0.10640112817E+03 -0.19252478956E+03  0.29761441862E+03  0.17200000000E+03 0.  1.
</event>
<event>
 4    1  0.3196149E-002  0.2518340E+03  0.7818608E-02  0.1112151E+00
         -2   -1    0    0    0  501 -0.00000000000E+00  0.00000000000E+00  0.72180269025E+02  0.72180269025E+02  0.00000000000E+00 0.  1.
          2   -1    0    0  502    0  0.00000000000E+00 -0.00000000000E+00 -0.16499390173E+04  0.16499390173E+04  0.00000000000E+00 0. -1.
          6    1    1    2  502    0  0.14326020291E+03 -0.11538147407E+03 -0.13776024684E+04  0.14004316946E+04  0.17200000000E+03 0. -1.
         -6    1    1    2    0  501 -0.14326020291E+03  0.11538147407E+03 -0.20015627987E+03  0.32168759172E+03  0.17200000000E+03 0.  1.
</event>
<event>
 4    1  0.3196149E-002  0.2532073E+03  0.7818608E-02  0.1111294E+00
         -2   -1    0    0    0  501 -0.00000000000E+00  0.00000000000E+00  0.51844727148E+03  0.51844727148E+03  0.00000000000E+00 0.  1.
          2   -1    0    0  502    0  0.00000000000E+00 -0.00000000000E+00 -0.19699067687E+03  0.19699067687E+03  0.00000000000E+00 0. -1.
          6    1    1    2  502    0  0.15143019834E+03 -0.10769795818E+03 -0.57517651399E+02  0.25965791994E+03  0.17200000000E+03 0. -1.
         -6    1    1    2    0  501 -0.15143019834E+03  0.10769795818E+03  0.37897424601E+03  0.45578002841E+03  0.17200000000E+03 0.  1.
</event>
<event>
 4    1  0.3196149E-002  0.2497432E+03  0.7818608E-02  0.1113467E+00
         -2   -1    0    0    0  501 -0.00000000000E+00  0.00000000000E+00  0.55038044697E+02  0.55038044697E+02  0.00000000000E+00 0.  1.
          2   -1    0    0  502    0  0.00000000000E+00 -0.00000000000E+00 -0.16049574392E+04  0.16049574392E+04  0.00000000000E+00 0. -1.
          6    1    1    2  502    0  0.17992564220E+03  0.20356959071E+02 -0.12249294979E+04  0.12501295602E+04  0.17200000000E+03 0. -1.
         -6    1    1    2    0  501 -0.17992564220E+03 -0.20356959071E+02 -0.32498989661E+03  0.40986592369E+03  0.17200000000E+03 0.  1.
</event>
<event>
 4    1  0.3196149E-002  0.1750968E+03  0.7818608E-02  0.1172635E+00
         -2   -1    0    0    0  501 -0.00000000000E+00  0.00000000000E+00  0.71680466343E+02  0.71680466343E+02  0.00000000000E+00 0.  1.
          2   -1    0    0  502    0  0.00000000000E+00 -0.00000000000E+00 -0.94392305331E+03  0.94392305331E+03  0.00000000000E+00 0. -1.
          6    1    1    2  502    0 -0.67566152008E+01 -0.32081557274E+02 -0.81164546515E+03  0.83031755327E+03  0.17200000000E+03 0. -1.
         -6    1    1    2    0  501  0.67566152008E+01  0.32081557274E+02 -0.60597121815E+02  0.18528596638E+03  0.17200000000E+03 0.  1.
</event>
<event>
 4    1  0.3196149E-002  0.2919219E+03  0.7818608E-02  0.1089350E+00
          2   -1    0    0  502    0  0.00000000000E+00  0.00000000000E+00  0.12856611010E+04  0.12856611010E+04  0.00000000000E+00 0. -1.
         -2   -1    0    0    0  501 -0.00000000000E+00 -0.00000000000E+00 -0.67291593068E+02  0.67291593068E+02  0.00000000000E+00 0.  1.
          6    1    1    2  502    0 -0.20572486218E+03 -0.11537625227E+03  0.69197429105E+03  0.75103050402E+03  0.17200000000E+03 0. -1.
         -6    1    1    2    0  501  0.20572486218E+03  0.11537625227E+03  0.52639521687E+03  0.60192219003E+03  0.17200000000E+03 0.  1.
</event>
<event>
 4    1  0.3196149E-002  0.1781984E+03  0.7818608E-02  0.1169558E+00
         -1   -1    0    0    0  501 -0.00000000000E+00  0.00000000000E+00  0.32684545832E+02  0.32684545832E+02  0.00000000000E+00 0.  1.
          1   -1    0    0  502    0  0.00000000000E+00 -0.00000000000E+00 -0.11507581517E+04  0.11507581517E+04  0.00000000000E+00 0. -1.
          6    1    1    2  502    0 -0.53621056191E+01 -0.46280858660E+02 -0.79254606184E+03  0.81233240130E+03  0.17200000000E+03 0.  1.
         -6    1    1    2    0  501  0.53621056191E+01  0.46280858660E+02 -0.32552754405E+03  0.37111029626E+03  0.17200000000E+03 0.  1.
</event>
<event>
 4    1  0.3196149E-002  0.2247296E+03  0.7818608E-02  0.1130405E+00
          2   -1    0    0  502    0  0.00000000000E+00  0.00000000000E+00  0.12993606288E+04  0.12993606288E+04  0.00000000000E+00 0. -1.
         -2   -1    0    0    0  501 -0.00000000000E+00 -0.00000000000E+00 -0.58439030315E+02  0.58439030315E+02  0.00000000000E+00 0.  1.
          6    1    1    2  502    0  0.32186618480E+02 -0.14100849316E+03  0.10133431697E+04  0.10379632715E+04  0.17200000000E+03 0. -1.
         -6    1    1    2    0  501 -0.32186618480E+02  0.14100849316E+03  0.22757842881E+03  0.31983638756E+03  0.17200000000E+03 0.  1.
</event>
<event>
 4    1  0.3196149E-002  0.2052322E+03  0.7818608E-02  0.1145398E+00
          1   -1    0    0  502    0  0.00000000000E+00  0.00000000000E+00  0.18508782499E+04  0.18508782499E+04  0.00000000000E+00 0. -1.
         -1   -1    0    0    0  501 -0.00000000000E+00 -0.00000000000E+00 -0.26816319099E+02  0.26816319099E+02  0.00000000000E+00 0.  1.
          6    1    1    2  502    0 -0.47230298147E+02 -0.10151629895E+03  0.12773119493E+04  0.12936947383E+04  0.17200000000E+03 0.  1.
         -6    1    1    2    0  501  0.47230298147E+02  0.10151629895E+03  0.54674998153E+03  0.58399983075E+03  0.17200000000E+03 0.  1.
</event>
<event>
 4    1  0.3196149E-002  0.1781231E+03  0.7818608E-02  0.1169632E+00
         -1   -1    0    0    0  501 -0.00000000000E+00  0.00000000000E+00  0.31131615426E+02  0.31131615426E+02  0.00000000000E+00 0.  1.
          1   -1    0    0  502    0  0.00000000000E+00 -0.00000000000E+00 -0.11777864158E+04  0.11777864158E+04  0.00000000000E+00 0. -1.
          6    1    1    2  502    0  0.38626175568E+02  0.25531748688E+02 -0.79516345936E+03  0.81486979251E+03  0.17200000000E+03 0. -1.
         -6    1    1    2    0  501 -0.38626175568E+02 -0.25531748688E+02 -0.35149134097E+03  0.39404823868E+03  0.17200000000E+03 0.  1.
</event>
<event>
 4    1  0.3196149E-002  0.3100154E+03  0.7818608E-02  0.1080339E+00
          1   -1    0    0  502    0  0.00000000000E+00  0.00000000000E+00  0.13829427733E+04  0.13829427733E+04  0.00000000000E+00 0. -1.
         -1   -1    0    0    0  501 -0.00000000000E+00 -0.00000000000E+00 -0.71297120106E+02  0.71297120106E+02  0.00000000000E+00 0.  1.
          6    1    1    2  502    0  0.21032261207E+03  0.14929808061E+03  0.77137961155E+03  0.83134591064E+03  0.17200000000E+03 0. -1.
         -6    1    1    2    0  501 -0.21032261207E+03 -0.14929808061E+03  0.54026604168E+03  0.62289398280E+03  0.17200000000E+03 0.  1.
</event>
<event>
 4    1  0.3196149E-002  0.2304167E+03  0.7818608E-02  0.1126347E+00
          1   -1    0    0  502    0  0.00000000000E+00  0.00000000000E+00  0.98952700259E+03  0.98952700259E+03  0.00000000000E+00 0. -1.
         -1   -1    0    0    0  501 -0.00000000000E+00 -0.00000000000E+00 -0.70852250435E+02  0.70852250435E+02  0.00000000000E+00 0.  1.
          6    1    1    2  502    0 -0.14813512411E+03 -0.39545457441E+02  0.19812160808E+03  0.30388160489E+03  0.17200000000E+03 0. -1.
         -6    1    1    2    0  501  0.14813512411E+03  0.39545457441E+02  0.72055314408E+03  0.75649764814E+03  0.17200000000E+03 0. -1.
</event>
<event>
 4    1  0.3196149E-002  0.2657588E+03  0.7818608E-02  0.1103732E+00
         -2   -1    0    0    0  501 -0.00000000000E+00  0.00000000000E+00  0.87850739955E+02  0.87850739955E+02  0.00000000000E+00 0.  1.
          2   -1    0    0  502    0  0.00000000000E+00 -0.00000000000E+00 -0.94516471645E+03  0.94516471645E+03  0.00000000000E+00 0. -1.
          6    1    1    2  502    0 -0.40984704054E+01 -0.20255107531E+03 -0.62830303801E+03  0.68219677743E+03  0.17200000000E+03 0. -1.
         -6    1    1    2    0  501  0.40984704054E+01  0.20255107531E+03 -0.22901093849E+03  0.35081867897E+03  0.17200000000E+03 0.  1.
</event>
<event>
 4    1  0.3196149E-002  0.4357452E+03  0.7818608E-02  0.1032060E+00
          1   -1    0    0  502    0  0.00000000000E+00  0.00000000000E+00  0.20102689120E+03  0.20102689120E+03  0.00000000000E+00 0. -1.
         -1   -1    0    0    0  501 -0.00000000000E+00 -0.00000000000E+00 -0.10764252665E+04  0.10764252665E+04  0.00000000000E+00 0.  1.
          6    1    1    2  502    0  0.24969192508E+03 -0.31295975505E+03 -0.21410824173E+03  0.48550613272E+03  0.17200000000E+03 0. -1.
         -6    1    1    2    0  501 -0.24969192508E+03  0.31295975505E+03 -0.66129013362E+03  0.79194602503E+03  0.17200000000E+03 0. -1.
</event>
<event>
 4    1  0.3196149E-002  0.3671022E+03  0.7818608E-02  0.1055807E+00
         -2   -1    0    0    0  501 -0.00000000000E+00  0.00000000000E+00  0.14193317135E+04  0.14193317135E+04  0.00000000000E+00 0.  1.
          2   -1    0    0  502    0  0.00000000000E+00 -0.00000000000E+00 -0.26073620984E+03  0.26073620984E+03  0.00000000000E+00 0. -1.
          6    1    1    2  502    0  0.56448171377E+02  0.31936436687E+03 -0.90543366783E+02  0.37810328767E+03  0.17200000000E+03 0. -1.
         -6    1    1    2    0  501 -0.56448171377E+02 -0.31936436687E+03  0.12491388705E+04  0.13019646357E+04  0.17200000000E+03 0.  1.
</event>
<event>
 4    1  0.3196149E-002  0.1967111E+03  0.7818608E-02  0.1152544E+00
          2   -1    0    0  502    0  0.00000000000E+00  0.00000000000E+00  0.20456708042E+04  0.20456708042E+04  0.00000000000E+00 0. -1.
         -2   -1    0    0    0  501 -0.00000000000E+00 -0.00000000000E+00 -0.20953005338E+02  0.20953005338E+02  0.00000000000E+00 0.  1.
          6    1    1    2  502    0  0.91037864774E+02 -0.28694414273E+02  0.13345681849E+04  0.13489875843E+04  0.17200000000E+03 0. -1.
         -6    1    1    2    0  501 -0.91037864774E+02  0.28694414273E+02  0.69014961391E+03  0.71763622526E+03  0.17200000000E+03 0.  1.
</event>
<event>
 4    1  0.3196149E-002  0.2105132E+03  0.7818608E-02  0.1141160E+00
         -1   -1    0    0    0  501 -0.00000000000E+00  0.00000000000E+00  0.11502187091E+03  0.11502187091E+03  0.00000000000E+00 0.  1.
          1   -1    0    0  502    0  0.00000000000E+00 -0.00000000000E+00 -0.53157700162E+03  0.53157700162E+03  0.00000000000E+00 0. -1.
          6    1    1    2  502    0 -0.39403343298E+02  0.11480071562E+03 -0.37788190885E+03  0.43256278712E+03  0.17200000000E+03 0. -1.
         -6    1    1    2    0  501  0.39403343298E+02 -0.11480071562E+03 -0.38673221866E+02  0.21403608541E+03  0.17200000000E+03 0. -1.
</event>
<event>
 4    1  0.3196149E-002  0.1762031E+03  0.7818608E-02  0.1171529E+00
          2   -1    0    0  502    0  0.00000000000E+00  0.00000000000E+00  0.10931699705E+04  0.10931699705E+04  0.00000000000E+00 0. -1.
         -2   -1    0    0    0  501 -0.00000000000E+00 -0.00000000000E+00 -0.42368790638E+02  0.42368790638E+02  0.00000000000E+00 0.  1.
          6    1    1    2  502    0 -0.10448266654E+02  0.36801837979E+02  0.85139248429E+03  0.86943470362E+03  0.17200000000E+03 0. -1.
         -6    1    1    2    0  501  0.10448266654E+02 -0.36801837979E+02  0.19940869556E+03  0.26610405750E+03  0.17200000000E+03 0.  1.
</event>
<event>
 4    1  0.3196149E-002  0.2692092E+03  0.7818608E-02  0.1101733E+00
          2   -1    0    0  502    0  0.00000000000E+00  0.00000000000E+00  0.99422312767E+03  0.99422312767E+03  0.00000000000E+00 0. -1.
         -2   -1    0    0    0  501 -0.00000000000E+00 -0.00000000000E+00 -0.76257300824E+02  0.76257300824E+02  0.00000000000E+00 0.  1.
          6    1    1    2  502    0 -0.12357855691E+03 -0.16618648352E+03  0.34658842814E+03  0.43885891303E+03  0.17200000000E+03 0.  1.
         -6    1    1    2    0  501  0.12357855691E+03  0.16618648352E+03  0.57137739871E+03  0.63162151545E+03  0.17200000000E+03 0.  1.
</event>
<event>
 4    1  0.3196149E-002  0.5732424E+03  0.7818608E-02  0.9962529E-01
          2   -1    0    0  502    0  0.00000000000E+00  0.00000000000E+00  0.80324475837E+03  0.80324475837E+03  0.00000000000E+00 0. -1.
         -2   -1    0    0    0  501 -0.00000000000E+00 -0.00000000000E+00 -0.41412715333E+03  0.41412715333E+03  0.00000000000E+00 0.  1.
          6    1    1    2  502    0 -0.37051961061E+03 -0.40216667235E+03  0.26162761880E+03  0.63012365859E+03  0.17200000000E+03 0. -1.
         -6    1    1    2    0  501  0.37051961061E+03  0.40216667235E+03  0.12748998624E+03  0.58724825311E+03  0.17200000000E+03 0.  1.
</event>
<event>
 4    1  0.3196149E-002  0.2004257E+03  0.7818608E-02  0.1149380E+00
         -2   -1    0    0    0  501 -0.00000000000E+00  0.00000000000E+00  0.27557190284E+03  0.27557190284E+03  0.00000000000E+00 0.  1.
          2   -1    0    0  502    0  0.00000000000E+00 -0.00000000000E+00 -0.27961277385E+03  0.27961277385E+03  0.00000000000E+00 0. -1.
          6    1    1    2  502    0  0.79150532847E+02 -0.65739347358E+02 -0.19407487961E+03  0.27899019255E+03  0.17200000000E+03 0. -1.
         -6    1    1    2    0  501 -0.79150532847E+02  0.65739347358E+02  0.19003400861E+03  0.27619448414E+03  0.17200000000E+03 0.  1.
</event>
<event>
 4    1  0.3196149E-002  0.1981730E+03  0.7818608E-02  0.1151290E+00
         -1   -1    0    0    0  501 -0.00000000000E+00  0.00000000000E+00  0.35663438360E+02  0.35663438360E+02  0.00000000000E+00 0.  1.
          1   -1    0    0  502    0  0.00000000000E+00 -0.00000000000E+00 -0.12520218830E+04  0.12520218830E+04  0.00000000000E+00 0. -1.
          6    1    1    2  502    0  0.88842441306E+02 -0.42374126963E+02 -0.83164307044E+03  0.85492850147E+03  0.17200000000E+03 0.  1.
         -6    1    1    2    0  501 -0.88842441306E+02  0.42374126963E+02 -0.38471537417E+03  0.43275681986E+03  0.17200000000E+03 0.  1.
</event>
<event>
 4    1  0.3196149E-002  0.5273524E+03  0.7818608E-02  0.1006876E+00
         -1   -1    0    0    0  501 -0.00000000000E+00  0.00000000000E+00  0.16904010841E+03  0.16904010841E+03  0.00000000000E+00 0.  1.
          1   -1    0    0  502    0  0.00000000000E+00 -0.00000000000E+00 -0.16922024979E+04  0.16922024979E+04  0.00000000000E+00 0. -1.
          6    1    1    2  502    0  0.38352730285E+02  0.49703680890E+03 -0.60644118069E+03  0.80366126381E+03  0.17200000000E+03 0. -1.
         -6    1    1    2    0  501 -0.38352730285E+02 -0.49703680890E+03 -0.91672120882E+03  0.10575813425E+04  0.17200000000E+03 0.  1.
</event>
<event>
 4    1  0.3196149E-002  0.3084787E+03  0.7818608E-02  0.1081077E+00
         -2   -1    0    0    0  501 -0.00000000000E+00  0.00000000000E+00  0.42620047478E+03  0.42620047478E+03  0.00000000000E+00 0.  1.
          2   -1    0    0  502    0  0.00000000000E+00 -0.00000000000E+00 -0.57882117990E+03  0.57882117990E+03  0.00000000000E+00 0. -1.
          6    1    1    2  502    0 -0.11065646084E+03 -0.23093349421E+03 -0.47015263772E+03  0.56231897872E+03  0.17200000000E+03 0. -1.
         -6    1    1    2    0  501  0.11065646084E+03  0.23093349421E+03  0.31753193260E+03  0.44270267595E+03  0.17200000000E+03 0.  1.
</event>
<event>
 4    1  0.3196149E-002  0.2627088E+03  0.7818608E-02  0.1105527E+00
          2   -1    0    0  502    0  0.00000000000E+00  0.00000000000E+00  0.44647833982E+04  0.44647833982E+04  0.00000000000E+00 0. -1.
         -2   -1    0    0    0  501 -0.00000000000E+00 -0.00000000000E+00 -0.37164093158E+02  0.37164093158E+02  0.00000000000E+00 0.  1.
          6    1    1    2  502    0  0.19380853581E+03 -0.43245121606E+02  0.49352176088E+03  0.55908820195E+03  0.17200000000E+03 0.  1.
         -6    1    1    2    0  501 -0.19380853581E+03  0.43245121606E+02  0.39340975441E+04  0.39428592894E+04  0.17200000000E+03 0. -1.
</event>
<event>
 4    1  0.3196149E-002  0.2226541E+03  0.7818608E-02  0.1131920E+00
          1   -1    0    0  502    0  0.00000000000E+00  0.00000000000E+00  0.49962853310E+03  0.49962853310E+03  0.00000000000E+00 0. -1.
         -1   -1    0    0    0  501 -0.00000000000E+00 -0.00000000000E+00 -0.99941299969E+02  0.99941299969E+02  0.00000000000E+00 0.  1.
          6    1    1    2  502    0  0.14138760515E+03 -0.62242707697E+00  0.22525152622E+03  0.31672242164E+03  0.17200000000E+03 0.  1.
         -6    1    1    2    0  501 -0.14138760515E+03  0.62242707697E+00  0.17443570692E+03  0.28284741143E+03  0.17200000000E+03 0. -1.
</event>
<event>
 4    1  0.3196149E-002  0.2745368E+03  0.7818608E-02  0.1098711E+00
          2   -1    0    0  502    0  0.00000000000E+00  0.00000000000E+00  0.32008758200E+04  0.32008758200E+04  0.00000000000E+00 0. -1.
         -2   -1    0    0    0  501 -0.00000000000E+00 -0.00000000000E+00 -0.27269632504E+02  0.27269632504E+02  0.00000000000E+00 0.  1.
          6    1    1    2  502    0 -0.48532949970E+02  0.20840105268E+03  0.21831775763E+04  0.22003715086E+04  0.17200000000E+03 0. -1.
         -6    1    1    2    0  501  0.48532949970E+02 -0.20840105268E+03  0.99042861120E+03  0.10277739440E+04  0.17200000000E+03 0.  1.
</event>
<event>
 4    1  0.3196149E-002  0.6139586E+03  0.7818608E-02  0.9876862E-01
         -3   -1    0    0    0  501 -0.00000000000E+00  0.00000000000E+00  0.47634987540E+03  0.47634987540E+03  0.00000000000E+00 0.  1.
          3   -1    0    0  502    0  0.00000000000E+00 -0.00000000000E+00 -0.79458998225E+03  0.79458998225E+03  0.00000000000E+00 0. -1.
          6    1    1    2  502    0 -0.28329943903E+03 -0.51681964673E+03 -0.11835339817E+03  0.62526206206E+03  0.17200000000E+03 0. -1.
         -6    1    1    2    0  501  0.28329943903E+03  0.51681964673E+03 -0.19988670868E+03  0.64567779558E+03  0.17200000000E+03 0.  1.
</event>
<event>
 4    1  0.3196149E-002  0.2114846E+03  0.7818608E-02  0.1140396E+00
          2   -1    0    0  502    0  0.00000000000E+00  0.00000000000E+00  0.10071481804E+03  0.10071481804E+03  0.00000000000E+00 0. -1.
         -2   -1    0    0    0  501 -0.00000000000E+00 -0.00000000000E+00 -0.50892748453E+03  0.50892748453E+03  0.00000000000E+00 0.  1.
          6    1    1    2  502    0  0.11526835055E+03  0.43068926403E+02 -0.31291265166E+03  0.37767718044E+03  0.17200000000E+03 0.  1.
         -6    1    1    2    0  501 -0.11526835055E+03 -0.43068926403E+02 -0.95300014831E+02  0.23196512213E+03  0.17200000000E+03 0. -1.
</event>
<event>
 4    1  0.3196149E-002  0.2598261E+03  0.7818608E-02  0.1107248E+00
          1   -1    0    0  502    0  0.00000000000E+00  0.00000000000E+00  0.29570229824E+03  0.29570229824E+03  0.00000000000E+00 0. -1.
         -1   -1    0    0    0  501 -0.00000000000E+00 -0.00000000000E+00 -0.24664753759E+03  0.24664753759E+03  0.00000000000E+00 0.  1.
          6    1    1    2  502    0 -0.19171627237E+03 -0.34211861022E+02 -0.49428066417E+02  0.26448575439E+03  0.17200000000E+03 0. -1.
         -6    1    1    2    0  501  0.19171627237E+03  0.34211861022E+02  0.98482827069E+02  0.27786408144E+03  0.17200000000E+03 0.  1.
</event>
<event>
 4    1  0.3196149E-002  0.2156901E+03  0.7818608E-02  0.1137138E+00
         -1   -1    0    0    0  501 -0.00000000000E+00  0.00000000000E+00  0.31096478401E+03  0.31096478401E+03  0.00000000000E+00 0.  1.
          1   -1    0    0  502    0  0.00000000000E+00 -0.00000000000E+00 -0.43684265571E+03  0.43684265571E+03  0.00000000000E+00 0. -1.
          6    1    1    2  502    0  0.12191389074E+03 -0.45554496965E+02 -0.36613053902E+03  0.42493973755E+03  0.17200000000E+03 0. -1.
         -6    1    1    2    0  501 -0.12191389074E+03  0.45554496965E+02  0.24025266732E+03  0.32286770217E+03  0.17200000000E+03 0.  1.
</event>
<event>
 4    1  0.3196149E-002  0.1987291E+03  0.7818608E-02  0.1150816E+00
          1   -1    0    0  502    0  0.00000000000E+00  0.00000000000E+00  0.16856062709E+04  0.16856062709E+04  0.00000000000E+00 0. -1.
         -1   -1    0    0    0  501 -0.00000000000E+00 -0.00000000000E+00 -0.88003216144E+02  0.88003216144E+02  0.00000000000E+00 0.  1.
          6    1    1    2  502    0 -0.78280892145E+02  0.61492807280E+02  0.15584382034E+04  0.15710578911E+04  0.17200000000E+03 0. -1.
         -6    1    1    2    0  501  0.78280892145E+02 -0.61492807280E+02  0.39164851328E+02  0.20255159590E+03  0.17200000000E+03 0.  1.
</event>
<event>
 4    1  0.3196149E-002  0.1896980E+03  0.7818608E-02  0.1158734E+00
          1   -1    0    0  502    0  0.00000000000E+00  0.00000000000E+00  0.39142089454E+03  0.39142089454E+03  0.00000000000E+00 0. -1.
         -1   -1    0    0    0  501 -0.00000000000E+00 -0.00000000000E+00 -0.12269829903E+03  0.12269829903E+03  0.00000000000E+00 0.  1.
          6    1    1    2  502    0  0.53300903767E+02 -0.59668483595E+02  0.26307666057E+03  0.32433723748E+03  0.17200000000E+03 0. -1.
         -6    1    1    2    0  501 -0.53300903767E+02  0.59668483595E+02  0.56459349387E+01  0.18978195609E+03  0.17200000000E+03 0.  1.
</event>
<event>
 4    1  0.3196149E-002  0.2573623E+03  0.7818608E-02  0.1108738E+00
          2   -1    0    0  502    0  0.00000000000E+00  0.00000000000E+00  0.84463435138E+02  0.84463435138E+02  0.00000000000E+00 0. -1.
         -2   -1    0    0    0  501 -0.00000000000E+00 -0.00000000000E+00 -0.78431167700E+03  0.78431167700E+03  0.00000000000E+00 0.  1.
          6    1    1    2  502    0  0.16971116707E+03 -0.88597325842E+02 -0.34450972055E+03  0.43002594564E+03  0.17200000000E+03 0. -1.
         -6    1    1    2    0  501 -0.16971116707E+03  0.88597325842E+02 -0.35533852132E+03  0.43874916650E+03  0.17200000000E+03 0.  1.
</event>
<event>
 4    1  0.3196149E-002  0.1758530E+03  0.7818608E-02  0.1171878E+00
          2   -1    0    0  502    0  0.00000000000E+00  0.00000000000E+00  0.10759554214E+04  0.10759554214E+04  0.00000000000E+00 0. -1.
         -2   -1    0    0    0  501 -0.00000000000E+00 -0.00000000000E+00 -0.30590634845E+02  0.30590634845E+02  0.00000000000E+00 0.  1.
          6    1    1    2  502    0 -0.52525371601E+01 -0.36231223458E+02  0.65872042065E+03  0.68178947138E+03  0.17200000000E+03 0. -1.
         -6    1    1    2    0  501  0.52525371601E+01  0.36231223458E+02  0.38664436589E+03  0.42475658485E+03  0.17200000000E+03 0.  1.
</event>
<event>
 4    1  0.3196149E-002  0.2054159E+03  0.7818608E-02  0.1145248E+00
          1   -1    0    0  502    0  0.00000000000E+00  0.00000000000E+00  0.22172499560E+03  0.22172499560E+03  0.00000000000E+00 0. -1.
         -1   -1    0    0    0  501 -0.00000000000E+00 -0.00000000000E+00 -0.20799418827E+03  0.20799418827E+03  0.00000000000E+00 0.  1.
          6    1    1    2  502    0  0.10342961710E+03  0.43749430680E+02  0.69521770746E+02  0.21686164941E+03  0.17200000000E+03 0. -1.
         -6    1    1    2    0  501 -0.10342961710E+03 -0.43749430680E+02 -0.55790963408E+02  0.21285753446E+03  0.17200000000E+03 0.  1.
</event>
<event>
 4    1  0.3196149E-002  0.2112197E+03  0.7818608E-02  0.1140604E+00
          2   -1    0    0  502    0  0.00000000000E+00  0.00000000000E+00  0.67761634917E+02  0.67761634917E+02  0.00000000000E+00 0. -1.
         -2   -1    0    0    0  501 -0.00000000000E+00 -0.00000000000E+00 -0.81134477633E+03  0.81134477633E+03  0.00000000000E+00 0.  1.
          6    1    1    2  502    0 -0.10768974162E+03  0.58588935349E+02 -0.56263924781E+03  0.60097975588E+03  0.17200000000E+03 0.  1.
         -6    1    1    2    0  501  0.10768974162E+03 -0.58588935349E+02 -0.18094389360E+03  0.27812665537E+03  0.17200000000E+03 0. -1.
</event>
<event>
 4    1  0.3196149E-002  0.2943117E+03  0.7818608E-02  0.1088119E+00
          2   -1    0    0  502    0  0.00000000000E+00  0.00000000000E+00  0.22539754365E+04  0.22539754365E+04  0.00000000000E+00 0. -1.
         -2   -1    0    0    0  501 -0.00000000000E+00 -0.00000000000E+00 -0.47063303694E+02  0.47063303694E+02  0.00000000000E+00 0.  1.
          6    1    1    2  502    0  0.21980879439E+03  0.93378114824E+02  0.61067812920E+03  0.67789907501E+03  0.17200000000E+03 0.  1.
         -6    1    1    2    0  501 -0.21980879439E+03 -0.93378114824E+02  0.15962340036E+04  0.16231396651E+04  0.17200000000E+03 0. -1.
</event>
<event>
 4    1  0.3196149E-002  0.1980308E+03  0.7818608E-02  0.1151411E+00
         -2   -1    0    0    0  501 -0.00000000000E+00  0.00000000000E+00  0.11585011707E+04  0.11585011707E+04  0.00000000000E+00 0.  1.
          2   -1    0    0  502    0  0.00000000000E+00 -0.00000000000E+00 -0.68891035959E+02  0.68891035959E+02  0.00000000000E+00 0. -1.
          6    1    1    2  502    0  0.37784384615E+02  0.90578907940E+02  0.10712629635E+03  0.22514937631E+03  0.17200000000E+03 0. -1.
         -6    1    1    2    0  501 -0.37784384615E+02 -0.90578907940E+02  0.98248383843E+03  0.10022428304E+04  0.17200000000E+03 0.  1.
</event>
<event>
 4    1  0.3196149E-002  0.2726789E+03  0.7818608E-02  0.1099756E+00
         -1   -1    0    0    0  501 -0.00000000000E+00  0.00000000000E+00  0.28714404095E+03  0.28714404095E+03  0.00000000000E+00 0.  1.
          1   -1    0    0  502    0  0.00000000000E+00 -0.00000000000E+00 -0.26304825979E+03  0.26304825979E+03  0.00000000000E+00 0. -1.
          6    1    1    2  502    0  0.52445885291E+02  0.20498582116E+03 -0.22321400593E+02  0.27359094043E+03  0.17200000000E+03 0. -1.
         -6    1    1    2    0  501 -0.52445885291E+02 -0.20498582116E+03  0.46417181747E+02  0.27660136031E+03  0.17200000000E+03 0.  1.
</event>
<event>
 4    1  0.3196149E-002  0.2778704E+03  0.7818608E-02  0.1096858E+00
          2   -1    0    0  502    0  0.00000000000E+00  0.00000000000E+00  0.85850598582E+03  0.85850598582E+03  0.00000000000E+00 0. -1.
         -2   -1    0    0    0  501 -0.00000000000E+00 -0.00000000000E+00 -0.91678465389E+02  0.91678465389E+02  0.00000000000E+00 0.  1.
          6    1    1    2  502    0 -0.19102761760E+03  0.10552920965E+03  0.44888149475E+03  0.52792666262E+03  0.17200000000E+03 0. -1.
         -6    1    1    2    0  501  0.19102761760E+03 -0.10552920965E+03  0.31794602568E+03  0.42225778859E+03  0.17200000000E+03 0.  1.
</event>
<event>
 4    1  0.3196149E-002  0.6332877E+03  0.7818608E-02  0.9838654E-01
         -2   -1    0    0    0  501 -0.00000000000E+00  0.00000000000E+00  0.47462212903E+03  0.47462212903E+03  0.00000000000E+00 0.  1.
          2   -1    0    0  502    0  0.00000000000E+00 -0.00000000000E+00 -0.86868167955E+03  0.86868167955E+03  0.00000000000E+00 0. -1.
          6    1    1    2  502    0  0.54218001147E+02 -0.60706652052E+03 -0.30793844798E+03  0.70418707723E+03  0.17200000000E+03 0. -1.
         -6    1    1    2    0  501 -0.54218001147E+02  0.60706652052E+03 -0.86121102534E+02  0.63911673135E+03  0.17200000000E+03 0.  1.
</event>
<event>
 4    1  0.3196149E-002  0.1800201E+03  0.7818608E-02  0.1167784E+00
          2   -1    0    0  502    0  0.00000000000E+00  0.00000000000E+00  0.12481127571E+04  0.12481127571E+04  0.00000000000E+00 0. -1.
         -2   -1    0    0    0  501 -0.00000000000E+00 -0.00000000000E+00 -0.33137035924E+02  0.33137035924E+02  0.00000000000E+00 0.  1.
          6    1    1    2  502    0 -0.34327916663E+02 -0.40556681623E+02  0.90552346495E+03  0.92324427746E+03  0.17200000000E+03 0. -1.
         -6    1    1    2    0  501  0.34327916663E+02  0.40556681623E+02  0.30945225618E+03  0.35800551552E+03  0.17200000000E+03 0.  1.
</event>
<event>
 4    1  0.3196149E-002  0.1985635E+03  0.7818608E-02  0.1150957E+00
         -1   -1    0    0    0  501 -0.00000000000E+00  0.00000000000E+00  0.52901787168E+03  0.52901787168E+03  0.00000000000E+00 0.  1.
          1   -1    0    0  502    0  0.00000000000E+00 -0.00000000000E+00 -0.77755312745E+02  0.77755312745E+02  0.00000000000E+00 0. -1.
          6    1    1    2  502    0 -0.71438819799E+02  0.68847293827E+02  0.28742562166E+03  0.34934358850E+03  0.17200000000E+03 0.  1.
         -6    1    1    2    0  501  0.71438819799E+02 -0.68847293827E+02  0.16383693728E+03  0.25742959593E+03  0.17200000000E+03 0. -1.
</event>
<event>
 4    1  0.3196149E-002  0.2827677E+03  0.7818608E-02  0.1094187E+00
          2   -1    0    0  502    0  0.00000000000E+00  0.00000000000E+00  0.70482927735E+03  0.70482927735E+03  0.00000000000E+00 0. -1.
         -2   -1    0    0    0  501 -0.00000000000E+00 -0.00000000000E+00 -0.16202252628E+03  0.16202252628E+03  0.00000000000E+00 0.  1.
          6    1    1    2  502    0  0.12546829385E+03 -0.18609478679E+03  0.50873534483E+03  0.58203884193E+03  0.17200000000E+03 0. -1.
         -6    1    1    2    0  501 -0.12546829385E+03  0.18609478679E+03  0.34071406241E+02  0.28481296170E+03  0.17200000000E+03 0.  1.
</event>
<event>
 4    1  0.3196149E-002  0.2392970E+03  0.7818608E-02  0.1120262E+00
         -1   -1    0    0    0  501 -0.00000000000E+00  0.00000000000E+00  0.17651323960E+03  0.17651323960E+03  0.00000000000E+00 0.  1.
          1   -1    0    0  502    0  0.00000000000E+00 -0.00000000000E+00 -0.41448664254E+03  0.41448664254E+03  0.00000000000E+00 0. -1.
          6    1    1    2  502    0  0.16273936522E+03  0.34567861334E+02 -0.25674033464E+03  0.35096814309E+03  0.17200000000E+03 0. -1.
         -6    1    1    2    0  501 -0.16273936522E+03 -0.34567861334E+02  0.18766931701E+02  0.24003173906E+03  0.17200000000E+03 0.  1.
</event>
<event>
 4    1  0.3196149E-002  0.1950190E+03  0.7818608E-02  0.1154011E+00
          2   -1    0    0  502    0  0.00000000000E+00  0.00000000000E+00  0.12996499121E+04  0.12996499121E+04  0.00000000000E+00 0. -1.
         -2   -1    0    0    0  501 -0.00000000000E+00 -0.00000000000E+00 -0.12830645043E+03  0.12830645043E+03  0.00000000000E+00 0.  1.
          6    1    1    2  502    0 -0.40349615287E+02 -0.82585232234E+02  0.12129674147E+04  0.12285448144E+04  0.17200000000E+03 0. -1.
         -6    1    1    2    0  501  0.40349615287E+02  0.82585232234E+02 -0.41623953019E+02  0.19941154807E+03  0.17200000000E+03 0.  1.
</event>
<event>
 4    1  0.3196149E-002  0.2137395E+03  0.7818608E-02  0.1138638E+00
          2   -1    0    0  502    0  0.00000000000E+00  0.00000000000E+00  0.44321918148E+03  0.44321918148E+03  0.00000000000E+00 0. -1.
         -2   -1    0    0    0  501 -0.00000000000E+00 -0.00000000000E+00 -0.15870090424E+03  0.15870090424E+03  0.00000000000E+00 0.  1.
          6    1    1    2  502    0  0.57277126004E+02 -0.11322505136E+03  0.32043946798E+03  0.38518311757E+03  0.17200000000E+03 0. -1.
         -6    1    1    2    0  501 -0.57277126004E+02  0.11322505136E+03 -0.35921190743E+02  0.21673696815E+03  0.17200000000E+03 0.  1.
</event>
<event>
 4    1  0.3196149E-002  0.1873970E+03  0.7818608E-02  0.1160830E+00
          1   -1    0    0  502    0  0.00000000000E+00  0.00000000000E+00  0.58919179629E+03  0.58919179629E+03  0.00000000000E+00 0. -1.
         -1   -1    0    0    0  501 -0.00000000000E+00 -0.00000000000E+00 -0.60085782856E+03  0.60085782856E+03  0.00000000000E+00 0.  1.
          6    1    1    2  502    0  0.57833856662E+02 -0.46785577169E+02  0.55890896665E+03  0.58948865825E+03  0.17200000000E+03 0. -1.
         -6    1    1    2    0  501 -0.57833856662E+02  0.46785577169E+02 -0.57057499892E+03  0.60056096660E+03  0.17200000000E+03 0.  1.
</event>
<event>
 4    1  0.3196149E-002  0.3553618E+03  0.7818608E-02  0.1060436E+00
         -2   -1    0    0    0  501 -0.00000000000E+00  0.00000000000E+00  0.32716394826E+02  0.32716394826E+02  0.00000000000E+00 0.  1.
          2   -1    0    0  502    0  0.00000000000E+00 -0.00000000000E+00 -0.38605505759E+04  0.38605505759E+04  0.00000000000E+00 0. -1.
          6    1    1    2  502    0  0.11268276841E+03  0.28982857198E+03 -0.18886439558E+04  0.19217851075E+04  0.17200000000E+03 0. -1.
         -6    1    1    2    0  501 -0.11268276841E+03 -0.28982857198E+03 -0.19391902252E+04  0.19714818632E+04  0.17200000000E+03 0.  1.
</event>
<event>
 4    1  0.3196149E-002  0.2698425E+03  0.7818608E-02  0.1101370E+00
         -1   -1    0    0    0  501 -0.00000000000E+00  0.00000000000E+00  0.14155380238E+03  0.14155380238E+03  0.00000000000E+00 0.  1.
          1   -1    0    0  502    0  0.00000000000E+00 -0.00000000000E+00 -0.91768407193E+03  0.91768407193E+03  0.00000000000E+00 0. -1.
          6    1    1    2  502    0  0.20787935099E+03  0.41417005884E+01 -0.73915927056E+03  0.78687445346E+03  0.17200000000E+03 0. -1.
         -6    1    1    2    0  501 -0.20787935099E+03 -0.41417005884E+01 -0.36970998990E+02  0.27236342085E+03  0.17200000000E+03 0.  1.
</event>
<event>
 4    1  0.3196149E-002  0.1821631E+03  0.7818608E-02  0.1165726E+00
          2   -1    0    0  502    0  0.00000000000E+00  0.00000000000E+00  0.51360124857E+03  0.51360124857E+03  0.00000000000E+00 0. -1.
         -2   -1    0    0    0  501 -0.00000000000E+00 -0.00000000000E+00 -0.64701143063E+02  0.64701143063E+02  0.00000000000E+00 0.  1.
          6    1    1    2  502    0  0.12353758329E+02 -0.58709391984E+02  0.23534522417E+03  0.29760843838E+03  0.17200000000E+03 0. -1.
         -6    1    1    2    0  501 -0.12353758329E+02  0.58709391984E+02  0.21355488133E+03  0.28069395325E+03  0.17200000000E+03 0.  1.
</event>
<event>
 4    1  0.3196149E-002  0.4454858E+03  0.7818608E-02  0.1029077E+00
         -1   -1    0    0    0  501 -0.00000000000E+00  0.00000000000E+00  0.68946407082E+03  0.68946407082E+03  0.00000000000E+00 0.  1.
          1   -1    0    0  502    0  0.00000000000E+00 -0.00000000000E+00 -0.43556609646E+03  0.43556609646E+03  0.00000000000E+00 0. -1.
          6    1    1    2  502    0  0.39158419348E+03  0.12464128001E+03 -0.20064118539E+03  0.48858419391E+03  0.17200000000E+03 0. -1.
         -6    1    1    2    0  501 -0.39158419348E+03 -0.12464128001E+03  0.45453915975E+03  0.63644597337E+03  0.17200000000E+03 0.  1.
</event>
<event>
 4    1  0.3196149E-002  0.2514565E+03  0.7818608E-02  0.1112388E+00
         -1   -1    0    0    0  501 -0.00000000000E+00  0.00000000000E+00  0.22924737057E+02  0.22924737057E+02  0.00000000000E+00 0.  1.
          1   -1    0    0  502    0  0.00000000000E+00 -0.00000000000E+00 -0.27644828303E+04  0.27644828303E+04  0.00000000000E+00 0. -1.
          6    1    1    2  502    0 -0.13105355420E+03 -0.12834078067E+03 -0.13041944966E+04  0.13282144687E+04  0.17200000000E+03 0. -1.
         -6    1    1    2    0  501  0.13105355420E+03  0.12834078067E+03 -0.14373635967E+04  0.14591930986E+04  0.17200000000E+03 0.  1.
</event>
<event>
 4    1  0.3196149E-002  0.4252367E+03  0.7818608E-02  0.1035375E+00
          2   -1    0    0  502    0  0.00000000000E+00  0.00000000000E+00  0.14803909172E+04  0.14803909172E+04  0.00000000000E+00 0. -1.
         -2   -1    0    0    0  501 -0.00000000000E+00 -0.00000000000E+00 -0.12334083928E+03  0.12334083928E+03  0.00000000000E+00 0.  1.
          6    1    1    2  502    0  0.10987237710E+03 -0.37305542275E+03  0.59965701165E+03  0.73512911745E+03  0.17200000000E+03 0. -1.
         -6    1    1    2    0  501 -0.10987237710E+03  0.37305542275E+03  0.75739306622E+03  0.86860263898E+03  0.17200000000E+03 0.  1.
</event>
<event>
 4    1  0.3196149E-002  0.1966377E+03  0.7818608E-02  0.1152607E+00
         -2   -1    0    0    0  501 -0.00000000000E+00  0.00000000000E+00  0.46845827868E+02  0.46845827868E+02  0.00000000000E+00 0.  1.
          2   -1    0    0  502    0  0.00000000000E+00 -0.00000000000E+00 -0.88752326701E+03  0.88752326701E+03  0.00000000000E+00 0. -1.
          6    1    1    2  502    0 -0.42611479938E+02 -0.85244549995E+02 -0.54394450015E+03  0.57839605010E+03  0.17200000000E+03 0. -1.
         -6    1    1    2    0  501  0.42611479938E+02  0.85244549995E+02 -0.29673293899E+03  0.35597304478E+03  0.17200000000E+03 0.  1.
</event>
<event>
 4    1  0.3196149E-002  0.3556015E+03  0.7818608E-02  0.1060339E+00
          2   -1    0    0  502    0  0.00000000000E+00  0.00000000000E+00  0.64929092356E+03  0.64929092356E+03  0.00000000000E+00 0. -1.
         -2   -1    0    0    0  501 -0.00000000000E+00 -0.00000000000E+00 -0.22433640419E+03  0.22433640419E+03  0.00000000000E+00 0.  1.
          6    1    1    2  502    0  0.27930068389E+03  0.13732999141E+03  0.53857014689E+02  0.35965674829E+03  0.17200000000E+03 0. -1.
         -6    1    1    2    0  501 -0.27930068389E+03 -0.13732999141E+03  0.37109750468E+03  0.51397057945E+03  0.17200000000E+03 0.  1.
</event>
<event>
 4    1  0.3196149E-002  0.1733682E+03  0.7818608E-02  0.1174380E+00
         -2   -1    0    0    0  501 -0.00000000000E+00  0.00000000000E+00  0.59714416489E+02  0.59714416489E+02  0.00000000000E+00 0.  1.
          2   -1    0    0  502    0  0.00000000000E+00 -0.00000000000E+00 -0.50367081557E+03  0.50367081557E+03  0.00000000000E+00 0. -1.
          6    1    1    2  502    0 -0.16146126942E+02 -0.14554387707E+02 -0.22922062749E+03  0.28739976284E+03  0.17200000000E+03 0. -1.
         -6    1    1    2    0  501  0.16146126942E+02  0.14554387707E+02 -0.21473577160E+03  0.27598546922E+03  0.17200000000E+03 0.  1.
</event>
<event>
 4    1  0.3196149E-002  0.2756285E+03  0.7818608E-02  0.1098101E+00
         -2   -1    0    0    0  501 -0.00000000000E+00  0.00000000000E+00  0.38442144446E+02  0.38442144446E+02  0.00000000000E+00 0.  1.
          2   -1    0    0  502    0  0.00000000000E+00 -0.00000000000E+00 -0.20121480417E+04  0.20121480417E+04  0.00000000000E+00 0. -1.
          6    1    1    2  502    0 -0.12334720966E+03 -0.17655751228E+03 -0.11238103650E+04  0.11571174641E+04  0.17200000000E+03 0.  1.
         -6    1    1    2    0  501  0.12334720966E+03  0.17655751228E+03 -0.84989553227E+03  0.89347272205E+03  0.17200000000E+03 0.  1.
</event>
<event>
 4    1  0.3196149E-002  0.1878637E+03  0.7818608E-02  0.1160402E+00
         -2   -1    0    0    0  501 -0.00000000000E+00  0.00000000000E+00  0.37571351104E+02  0.37571351104E+02  0.00000000000E+00 0.  1.
          2   -1    0    0  502    0  0.00000000000E+00 -0.00000000000E+00 -0.11881267303E+04  0.11881267303E+04  0.00000000000E+00 0. -1.
          6    1    1    2  502    0  0.70939409937E+02  0.26007459796E+02 -0.85570723717E+03  0.87608656170E+03  0.17200000000E+03 0. -1.
         -6    1    1    2    0  501 -0.70939409937E+02 -0.26007459796E+02 -0.29484814198E+03  0.34961151965E+03  0.17200000000E+03 0.  1.
</event>
<event>
 4    1  0.3196149E-002  0.1731766E+03  0.7818608E-02  0.1174575E+00
          2   -1    0    0  502    0  0.00000000000E+00  0.00000000000E+00  0.14007221201E+04  0.14007221201E+04  0.00000000000E+00 0. -1.
         -2   -1    0    0    0  501 -0.00000000000E+00 -0.00000000000E+00 -0.26638332367E+02  0.26638332367E+02  0.00000000000E+00 0.  1.
          6    1    1    2  502    0 -0.18657749823E+02 -0.76179432612E+01  0.10032051942E+04  0.10180426348E+04  0.17200000000E+03 0. -1.
         -6    1    1    2    0  501  0.18657749823E+02  0.76179432612E+01  0.37087859359E+03  0.40931781768E+03  0.17200000000E+03 0.  1.
</event>
<event>
 4    1  0.3196149E-002  0.4253595E+03  0.7818608E-02  0.1035336E+00
         -1   -1    0    0    0  501 -0.00000000000E+00  0.00000000000E+00  0.26923434909E+03  0.26923434909E+03  0.00000000000E+00 0.  1.
          1   -1    0    0  502    0  0.00000000000E+00 -0.00000000000E+00 -0.85936759667E+03  0.85936759667E+03  0.00000000000E+00 0. -1.
          6    1    1    2  502    0 -0.38875291600E+03  0.14761153262E+02 -0.55854562188E+03  0.70207117379E+03  0.17200000000E+03 0. -1.
         -6    1    1    2    0  501  0.38875291600E+03 -0.14761153262E+02 -0.31587625694E+02  0.42653077197E+03  0.17200000000E+03 0.  1.
</event>
<event>
 4    1  0.3196149E-002  0.2290823E+03  0.7818608E-02  0.1127287E+00
         -1   -1    0    0    0  501 -0.00000000000E+00  0.00000000000E+00  0.13044268152E+03  0.13044268152E+03  0.00000000000E+00 0.  1.
          1   -1    0    0  502    0  0.00000000000E+00 -0.00000000000E+00 -0.89886130309E+03  0.89886130309E+03  0.00000000000E+00 0. -1.
          6    1    1    2  502    0 -0.38328762263E+02  0.14637491071E+03 -0.76672418629E+03  0.80021539996E+03  0.17200000000E+03 0. -1.
         -6    1    1    2    0  501  0.38328762263E+02 -0.14637491071E+03 -0.16944352902E+01  0.22908858464E+03  0.17200000000E+03 0.  1.
</event>
<event>
 4    1  0.3196149E-002  0.2993434E+03  0.7818608E-02  0.1085569E+00
          1   -1    0    0  502    0  0.00000000000E+00  0.00000000000E+00  0.10496883024E+04  0.10496883024E+04  0.00000000000E+00 0. -1.
         -1   -1    0    0    0  501 -0.00000000000E+00 -0.00000000000E+00 -0.13519777932E+03  0.13519777932E+03  0.00000000000E+00 0.  1.
          6    1    1    2  502    0 -0.20437088598E+03  0.13511119979E+03  0.81692832354E+03  0.87004504547E+03  0.17200000000E+03 0. -1.
         -6    1    1    2    0  501  0.20437088598E+03 -0.13511119979E+03  0.97562199588E+02  0.31484103629E+03  0.17200000000E+03 0.  1.
</event>
<event>
 4    1  0.3196149E-002  0.1770876E+03  0.7818608E-02  0.1170652E+00
         -2   -1    0    0    0  501 -0.00000000000E+00  0.00000000000E+00  0.33602780631E+03  0.33602780631E+03  0.00000000000E+00 0.  1.
          2   -1    0    0  502    0  0.00000000000E+00 -0.00000000000E+00 -0.17931173829E+03  0.17931173829E+03  0.00000000000E+00 0. -1.
          6    1    1    2  502    0 -0.19456494784E+02  0.37382693378E+02 -0.10007413428E+03  0.20340809548E+03  0.17200000000E+03 0. -1.
         -6    1    1    2    0  501  0.19456494784E+02 -0.37382693378E+02  0.25679020230E+03  0.31193144912E+03  0.17200000000E+03 0.  1.
</event>
<event>
 4    1  0.3196149E-002  0.2973620E+03  0.7818608E-02  0.1086567E+00
         -1   -1    0    0    0  501 -0.00000000000E+00  0.00000000000E+00  0.16400893279E+03  0.16400893279E+03  0.00000000000E+00 0.  1.
          1   -1    0    0  502    0  0.00000000000E+00 -0.00000000000E+00 -0.53963871297E+03  0.53963871297E+03  0.00000000000E+00 0. -1.
          6    1    1    2  502    0 -0.15772681620E+03 -0.18428885161E+03 -0.19848721185E+03  0.35752105203E+03  0.17200000000E+03 0.  1.
         -6    1    1    2    0  501  0.15772681620E+03  0.18428885161E+03 -0.17714256832E+03  0.34612659373E+03  0.17200000000E+03 0.  1.
</event>
<event>
 4    1  0.3196149E-002  0.2153575E+03  0.7818608E-02  0.1137392E+00
          2   -1    0    0  502    0  0.00000000000E+00  0.00000000000E+00  0.26918624449E+02  0.26918624449E+02  0.00000000000E+00 0. -1.
         -2   -1    0    0    0  501 -0.00000000000E+00 -0.00000000000E+00 -0.25622019954E+04  0.25622019954E+04  0.00000000000E+00 0.  1.
          6    1    1    2  502    0  0.25949092883E+02 -0.12697045437E+03 -0.52672821715E+03  0.56905313148E+03  0.17200000000E+03 0. -1.
         -6    1    1    2    0  501 -0.25949092883E+02  0.12697045437E+03 -0.20085551538E+04  0.20200674884E+04  0.17200000000E+03 0.  1.
</event>
<event>
 4    1  0.3196149E-002  0.3243287E+03  0.7818608E-02  0.1073674E+00
         -1   -1    0    0    0  501 -0.00000000000E+00  0.00000000000E+00  0.18871932634E+03  0.18871932634E+03  0.00000000000E+00 0.  1.
          1   -1    0    0  502    0  0.00000000000E+00 -0.00000000000E+00 -0.10183731073E+04  0.10183731073E+04  0.00000000000E+00 0. -1.
          6    1    1    2  502    0  0.11231620374E+03 -0.25097849092E+03 -0.82089829149E+03  0.88264553333E+03  0.17200000000E+03 0. -1.
         -6    1    1    2    0  501 -0.11231620374E+03  0.25097849092E+03 -0.87554894728E+01  0.32444690031E+03  0.17200000000E+03 0.  1.
</event>
<event>
 4    1  0.3196149E-002  0.2713312E+03  0.7818608E-02  0.1100520E+00
          2   -1    0    0  502    0  0.00000000000E+00  0.00000000000E+00  0.11774298260E+04  0.11774298260E+04  0.00000000000E+00 0. -1.
         -2   -1    0    0    0  501 -0.00000000000E+00 -0.00000000000E+00 -0.90778753146E+02  0.90778753146E+02  0.00000000000E+00 0.  1.
          6    1    1    2  502    0  0.72088166196E+02  0.19707849233E+03  0.89707409019E+03  0.93720998668E+03  0.17200000000E+03 0. -1.
         -6    1    1    2    0  501 -0.72088166196E+02 -0.19707849233E+03  0.18957698262E+03  0.33099859242E+03  0.17200000000E+03 0.  1.
</event>
<event>
 4    1  0.3196149E-002  0.2929134E+03  0.7818608E-02  0.1088838E+00
         -2   -1    0    0    0  501 -0.00000000000E+00  0.00000000000E+00  0.43691066307E+02  0.43691066307E+02  0.00000000000E+00 0.  1.
          2   -1    0    0  502    0  0.00000000000E+00 -0.00000000000E+00 -0.19637632529E+04  0.19637632529E+04  0.00000000000E+00 0. -1.
          6    1    1    2  502    0 -0.43382913781E+02 -0.23309265467E+03 -0.95727845667E+03  0.10010895597E+04  0.17200000000E+03 0. -1.
         -6    1    1    2    0  501  0.43382913781E+02  0.23309265467E+03 -0.96279372993E+03  0.10063647596E+04  0.17200000000E+03 0.  1.
</event>
<event>
 4    1  0.3196149E-002  0.1896663E+03  0.7818608E-02  0.1158763E+00
          1   -1    0    0  502    0  0.00000000000E+00  0.00000000000E+00  0.13382145944E+03  0.13382145944E+03  0.00000000000E+00 0. -1.
         -1   -1    0    0    0  501 -0.00000000000E+00 -0.00000000000E+00 -0.52122778270E+03  0.52122778270E+03  0.00000000000E+00 0.  1.
          6    1    1    2  502    0 -0.17074048112E+02 -0.78088226204E+02 -0.42162468649E+03  0.46232096043E+03  0.17200000000E+03 0.  1.
         -6    1    1    2    0  501  0.17074048112E+02  0.78088226204E+02  0.34218363237E+02  0.19272828172E+03  0.17200000000E+03 0. -1.
</event>
<event>
 4    1  0.3196149E-002  0.1742022E+03  0.7818608E-02  0.1173535E+00
          2   -1    0    0  502    0  0.00000000000E+00  0.00000000000E+00  0.35293721448E+03  0.35293721448E+03  0.00000000000E+00 0. -1.
         -2   -1    0    0    0  501 -0.00000000000E+00 -0.00000000000E+00 -0.87418937660E+02  0.87418937660E+02  0.00000000000E+00 0.  1.
          6    1    1    2  502    0 -0.26186731502E+02 -0.87559190952E+01  0.16098324982E+03  0.23719615880E+03  0.17200000000E+03 0. -1.
         -6    1    1    2    0  501  0.26186731502E+02  0.87559190952E+01  0.10453502701E+03  0.20315999335E+03  0.17200000000E+03 0. -1.
</event>
<event>
 4    1  0.3196149E-002  0.1734460E+03  0.7818608E-02  0.1174301E+00
          2   -1    0    0  502    0  0.00000000000E+00  0.00000000000E+00  0.64611857227E+03  0.64611857227E+03  0.00000000000E+00 0. -1.
         -2   -1    0    0    0  501 -0.00000000000E+00 -0.00000000000E+00 -0.17742873835E+03  0.17742873835E+03  0.00000000000E+00 0.  1.
          6    1    1    2  502    0 -0.16064727159E+02 -0.15538042857E+02  0.58798701147E+03  0.61303526154E+03  0.17200000000E+03 0. -1.
         -6    1    1    2    0  501  0.16064727159E+02  0.15538042857E+02 -0.11929717756E+03  0.21051204908E+03  0.17200000000E+03 0.  1.
</event>
<event>
 4    1  0.3196149E-002  0.2022106E+03  0.7818608E-02  0.1147887E+00
          2   -1    0    0  502    0  0.00000000000E+00  0.00000000000E+00  0.29483185352E+04  0.29483185352E+04  0.00000000000E+00 0. -1.
         -2   -1    0    0    0  501 -0.00000000000E+00 -0.00000000000E+00 -0.20416780626E+02  0.20416780626E+02  0.00000000000E+00 0.  1.
          6    1    1    2  502    0 -0.11490849220E+02 -0.10570289294E+03  0.62331648027E+03  0.65529579257E+03  0.17200000000E+03 0. -1.
         -6    1    1    2    0  501  0.11490849220E+02  0.10570289294E+03  0.23045852743E+04  0.23134395232E+04  0.17200000000E+03 0. -1.
</event>
<event>
 4    1  0.3196149E-002  0.2233612E+03  0.7818608E-02  0.1131402E+00
         -2   -1    0    0    0  501 -0.00000000000E+00  0.00000000000E+00  0.13833483833E+03  0.13833483833E+03  0.00000000000E+00 0.  1.
          2   -1    0    0  502    0  0.00000000000E+00 -0.00000000000E+00 -0.40366007747E+03  0.40366007747E+03  0.00000000000E+00 0. -1.
          6    1    1    2  502    0  0.22745843890E+01 -0.14248178056E+03 -0.22112339619E+03  0.31430206469E+03  0.17200000000E+03 0.  1.
         -6    1    1    2    0  501 -0.22745843890E+01  0.14248178056E+03 -0.44201842949E+02  0.22769285111E+03  0.17200000000E+03 0.  1.
</event>
<event>
 4    1  0.3196149E-002  0.3277221E+03  0.7818608E-02  0.1072149E+00
         -2   -1    0    0    0  501 -0.00000000000E+00  0.00000000000E+00  0.22655176909E+03  0.22655176909E+03  0.00000000000E+00 0.  1.
          2   -1    0    0  502    0  0.00000000000E+00 -0.00000000000E+00 -0.81759250386E+03  0.81759250386E+03  0.00000000000E+00 0. -1.
          6    1    1    2  502    0  0.13336563209E+03  0.24501308548E+03 -0.63392673484E+03  0.71362799063E+03  0.17200000000E+03 0. -1.
         -6    1    1    2    0  501 -0.13336563209E+03 -0.24501308548E+03  0.42886000069E+02  0.33051628232E+03  0.17200000000E+03 0.  1.
</event>
<event>
 4    1  0.3196149E-002  0.9412101E+03  0.7818608E-02  0.9375484E-01
          1   -1    0    0  502    0  0.00000000000E+00  0.00000000000E+00  0.18635617286E+04  0.18635617286E+04  0.00000000000E+00 0. -1.
         -1   -1    0    0    0  501 -0.00000000000E+00 -0.00000000000E+00 -0.75326366349E+03  0.75326366349E+03  0.00000000000E+00 0.  1.
          6    1    1    2  502    0  0.13450881325E+03 -0.91553250520E+03  0.13498662796E+04  0.16456048619E+04  0.17200000000E+03 0. -1.
         -6    1    1    2    0  501 -0.13450881325E+03  0.91553250520E+03 -0.23956821441E+03  0.97122053020E+03  0.17200000000E+03 0.  1.
</event>
<event>
 4    1  0.3196149E-002  0.4963159E+03  0.7818608E-02  0.1014745E+00
         -1   -1    0    0    0  501 -0.00000000000E+00  0.00000000000E+00  0.10385335232E+04  0.10385335232E+04  0.00000000000E+00 0.  1.
          1   -1    0    0  502    0  0.00000000000E+00 -0.00000000000E+00 -0.29208719085E+03  0.29208719085E+03  0.00000000000E+00 0. -1.
          6    1    1    2  502    0  0.38311056121E+03  0.26452173140E+03  0.84790596050E+02  0.50350659745E+03  0.17200000000E+03 0. -1.
         -6    1    1    2    0  501 -0.38311056121E+03 -0.26452173140E+03  0.66165573628E+03  0.82711411658E+03  0.17200000000E+03 0.  1.
</event>
<event>
 4    1  0.3196149E-002  0.2476149E+03  0.7818608E-02  0.1114822E+00
         -1   -1    0    0    0  501 -0.00000000000E+00  0.00000000000E+00  0.28820955052E+02  0.28820955052E+02  0.00000000000E+00 0.  1.
          1   -1    0    0  502    0  0.00000000000E+00 -0.00000000000E+00 -0.23327267222E+04  0.23327267222E+04  0.00000000000E+00 0. -1.
          6    1    1    2  502    0  0.16479037813E+03  0.67625857284E+02 -0.80162185314E+03  0.83899387407E+03  0.17200000000E+03 0.  1.
         -6    1    1    2    0  501 -0.16479037813E+03 -0.67625857284E+02 -0.15022839140E+04  0.15225538032E+04  0.17200000000E+03 0. -1.
</event>
<event>
 4    1  0.3196149E-002  0.2114305E+03  0.7818608E-02  0.1140438E+00
         -1   -1    0    0    0  501 -0.00000000000E+00  0.00000000000E+00  0.46385322429E+02  0.46385322429E+02  0.00000000000E+00 0.  1.
          1   -1    0    0  502    0  0.00000000000E+00 -0.00000000000E+00 -0.99632363989E+03  0.99632363989E+03  0.00000000000E+00 0. -1.
          6    1    1    2  502    0  0.12266203366E+03  0.85365094856E+01 -0.38066934041E+03  0.43544459260E+03  0.17200000000E+03 0. -1.
         -6    1    1    2    0  501 -0.12266203366E+03 -0.85365094856E+01 -0.56926897705E+03  0.60726436972E+03  0.17200000000E+03 0. -1.
</event>
<event>
 4    1  0.3196149E-002  0.2709914E+03  0.7818608E-02  0.1100714E+00
         -2   -1    0    0    0  501 -0.00000000000E+00  0.00000000000E+00  0.92909696610E+02  0.92909696610E+02  0.00000000000E+00 0.  1.
          2   -1    0    0  502    0  0.00000000000E+00 -0.00000000000E+00 -0.79054172007E+03  0.79054172007E+03  0.00000000000E+00 0. -1.
          6    1    1    2  502    0  0.46797212806E+01 -0.20935725593E+03 -0.35460867255E+03  0.44629997877E+03  0.17200000000E+03 0. -1.
         -6    1    1    2    0  501 -0.46797212806E+01  0.20935725593E+03 -0.34302335091E+03  0.43715143791E+03  0.17200000000E+03 0.  1.
</event>
<event>
 4    1  0.3196149E-002  0.2310453E+03  0.7818608E-02  0.1125906E+00
          2   -1    0    0  502    0  0.00000000000E+00  0.00000000000E+00  0.44595960060E+03  0.44595960060E+03  0.00000000000E+00 0. -1.
         -2   -1    0    0    0  501 -0.00000000000E+00 -0.00000000000E+00 -0.20770172987E+03  0.20770172987E+03  0.00000000000E+00 0.  1.
          6    1    1    2  502    0  0.93638658152E+02  0.12259588729E+03 -0.93609080803E+02  0.24928820648E+03  0.17200000000E+03 0. -1.
         -6    1    1    2    0  501 -0.93638658152E+02 -0.12259588729E+03  0.33186695153E+03  0.40437312398E+03  0.17200000000E+03 0.  1.
</event>
<event>
 4    1  0.3196149E-002  0.4562178E+03  0.7818608E-02  0.1025884E+00
         -1   -1    0    0    0  501 -0.00000000000E+00  0.00000000000E+00  0.43086959113E+03  0.43086959113E+03  0.00000000000E+00 0.  1.
          1   -1    0    0  502    0  0.00000000000E+00 -0.00000000000E+00 -0.66484710817E+03  0.66484710817E+03  0.00000000000E+00 0. -1.
          6    1    1    2  502    0  0.33785741661E+03 -0.25377748819E+03 -0.40346743917E+03  0.60903252946E+03  0.17200000000E+03 0. -1.
         -6    1    1    2    0  501 -0.33785741661E+03  0.25377748819E+03  0.16948992213E+03  0.48668416984E+03  0.17200000000E+03 0.  1.
</event>
<event>
 4    1  0.3196149E-002  0.2122084E+03  0.7818608E-02  0.1139829E+00
         -2   -1    0    0    0  501 -0.00000000000E+00  0.00000000000E+00  0.48376520428E+02  0.48376520428E+02  0.00000000000E+00 0.  1.
          2   -1    0    0  502    0  0.00000000000E+00 -0.00000000000E+00 -0.10195409592E+04  0.10195409592E+04  0.00000000000E+00 0. -1.
          6    1    1    2  502    0  0.90541162781E+01 -0.12396133718E+03 -0.64304903651E+03  0.67715910501E+03  0.17200000000E+03 0. -1.
         -6    1    1    2    0  501 -0.90541162781E+01  0.12396133718E+03 -0.32811540229E+03  0.39075837465E+03  0.17200000000E+03 0.  1.
</event>
<event>
 4    1  0.3196149E-002  0.1775097E+03  0.7818608E-02  0.1170235E+00
         -2   -1    0    0    0  501 -0.00000000000E+00  0.00000000000E+00  0.46641068325E+02  0.46641068325E+02  0.00000000000E+00 0.  1.
          2   -1    0    0  502    0  0.00000000000E+00 -0.00000000000E+00 -0.79608749444E+03  0.79608749444E+03  0.00000000000E+00 0. -1.
          6    1    1    2  502    0  0.42150730750E+01 -0.43679905338E+02 -0.53866404176E+03  0.56715840015E+03  0.17200000000E+03 0. -1.
         -6    1    1    2    0  501 -0.42150730750E+01  0.43679905338E+02 -0.21078238436E+03  0.27557016262E+03  0.17200000000E+03 0.  1.
</event>
<event>
 4    1  0.3196149E-002  0.2045157E+03  0.7818608E-02  0.1145984E+00
         -2   -1    0    0    0  501 -0.00000000000E+00  0.00000000000E+00  0.11911134097E+03  0.11911134097E+03  0.00000000000E+00 0.  1.
          2   -1    0    0  502    0  0.00000000000E+00 -0.00000000000E+00 -0.84216989245E+03  0.84216989245E+03  0.00000000000E+00 0. -1.
          6    1    1    2  502    0 -0.20647451143E+02  0.10870296367E+03 -0.72853052411E+03  0.75669239200E+03  0.17200000000E+03 0. -1.
         -6    1    1    2    0  501  0.20647451143E+02 -0.10870296367E+03  0.54719726283E+01  0.20458884142E+03  0.17200000000E+03 0.  1.
</event>
<event>
 4    1  0.3196149E-002  0.4634339E+03  0.7818608E-02  0.1023790E+00
         -2   -1    0    0    0  501 -0.00000000000E+00  0.00000000000E+00  0.50596557994E+03  0.50596557994E+03  0.00000000000E+00 0.  1.
          2   -1    0    0  502    0  0.00000000000E+00 -0.00000000000E+00 -0.42452527108E+03  0.42452527108E+03  0.00000000000E+00 0. -1.
          6    1    1    2  502    0  0.23927091076E+03 -0.35768203534E+03  0.35785136919E+02  0.46481349289E+03  0.17200000000E+03 0. -1.
         -6    1    1    2    0  501 -0.23927091076E+03  0.35768203534E+03  0.45655171940E+02  0.46567735812E+03  0.17200000000E+03 0. -1.
</event>
<event>
 4    1  0.3196149E-002  0.1966340E+03  0.7818608E-02  0.1152610E+00
          4   -1    0    0  502    0  0.00000000000E+00  0.00000000000E+00  0.15009381705E+03  0.15009381705E+03  0.00000000000E+00 0. -1.
         -4   -1    0    0    0  501 -0.00000000000E+00 -0.00000000000E+00 -0.48018847892E+03  0.48018847892E+03  0.00000000000E+00 0.  1.
          6    1    1    2  502    0  0.95293830925E+02 -0.16371579120E+00 -0.37960574802E+03  0.42751077758E+03  0.17200000000E+03 0.  1.
         -6    1    1    2    0  501 -0.95293830925E+02  0.16371579120E+00  0.49511086153E+02  0.20277151838E+03  0.17200000000E+03 0. -1.
</event>
<event>
 4    1  0.3196149E-002  0.1751874E+03  0.7818608E-02  0.1172544E+00
         -2   -1    0    0    0  501 -0.00000000000E+00  0.00000000000E+00  0.11314392479E+03  0.11314392479E+03  0.00000000000E+00 0.  1.
          2   -1    0    0  502    0  0.00000000000E+00 -0.00000000000E+00 -0.11613354325E+04  0.11613354325E+04  0.00000000000E+00 0. -1.
          6    1    1    2  502    0  0.22636981653E+02 -0.24375815475E+02  0.33782098383E+02  0.17841480737E+03  0.17200000000E+03 0.  1.
         -6    1    1    2    0  501 -0.22636981653E+02  0.24375815475E+02 -0.10819736060E+04  0.10960645499E+04  0.17200000000E+03 0. -1.
</event>
<event>
 4    1  0.3196149E-002  0.2479104E+03  0.7818608E-02  0.1114633E+00
          2   -1    0    0  502    0  0.00000000000E+00  0.00000000000E+00  0.10099893680E+04  0.10099893680E+04  0.00000000000E+00 0. -1.
         -2   -1    0    0    0  501 -0.00000000000E+00 -0.00000000000E+00 -0.83884291593E+02  0.83884291593E+02  0.00000000000E+00 0.  1.
          6    1    1    2  502    0  0.83083081193E+02 -0.15802776147E+03  0.74964729152E+03  0.78957623664E+03  0.17200000000E+03 0. -1.
         -6    1    1    2    0  501 -0.83083081193E+02  0.15802776147E+03  0.17645778490E+03  0.30429742297E+03  0.17200000000E+03 0.  1.
</event>
<event>
 4    1  0.3196149E-002  0.1911022E+03  0.7818608E-02  0.1157471E+00
          4   -1    0    0  502    0  0.00000000000E+00  0.00000000000E+00  0.12074858844E+03  0.12074858844E+03  0.00000000000E+00 0. -1.
         -4   -1    0    0    0  501 -0.00000000000E+00 -0.00000000000E+00 -0.46289524749E+03  0.46289524749E+03  0.00000000000E+00 0.  1.
          6    1    1    2  502    0  0.24999608904E+02 -0.79442344103E+02  0.73484837316E+00  0.19110365377E+03  0.17200000000E+03 0. -1.
         -6    1    1    2    0  501 -0.24999608904E+02  0.79442344103E+02 -0.34288150742E+03  0.39254018216E+03  0.17200000000E+03 0. -1.
</event>
<event>
 4    1  0.3196149E-002  0.1774768E+03  0.7818608E-02  0.1170268E+00
          2   -1    0    0  502    0  0.00000000000E+00  0.00000000000E+00  0.23546715010E+04  0.23546715010E+04  0.00000000000E+00 0. -1.
         -2   -1    0    0    0  501 -0.00000000000E+00 -0.00000000000E+00 -0.13598025280E+02  0.13598025280E+02  0.00000000000E+00 0.  1.
          6    1    1    2  502    0 -0.43202672831E+02 -0.68952337753E+01  0.10195072890E+04  0.10348396627E+04  0.17200000000E+03 0.  1.
         -6    1    1    2    0  501  0.43202672831E+02  0.68952337753E+01  0.13215661867E+04  0.13334298636E+04  0.17200000000E+03 0. -1.
</event>
<event>
 4    1  0.3196149E-002  0.1838165E+03  0.7818608E-02  0.1164160E+00
          2   -1    0    0  502    0  0.00000000000E+00  0.00000000000E+00  0.48251215199E+03  0.48251215199E+03  0.00000000000E+00 0. -1.
         -2   -1    0    0    0  501 -0.00000000000E+00 -0.00000000000E+00 -0.70091354352E+02  0.70091354352E+02  0.00000000000E+00 0.  1.
          6    1    1    2  502    0  0.63326827735E+02  0.13936583690E+02  0.19778939086E+03  0.27001695986E+03  0.17200000000E+03 0. -1.
         -6    1    1    2    0  501 -0.63326827735E+02 -0.13936583690E+02  0.21463140677E+03  0.28258654648E+03  0.17200000000E+03 0.  1.
</event>
<event>
 4    1  0.3196149E-002  0.3918177E+03  0.7818608E-02  0.1046650E+00
         -1   -1    0    0    0  501 -0.00000000000E+00  0.00000000000E+00  0.21239150630E+03  0.21239150630E+03  0.00000000000E+00 0.  1.
          1   -1    0    0  502    0  0.00000000000E+00 -0.00000000000E+00 -0.96883375846E+03  0.96883375846E+03  0.00000000000E+00 0. -1.
          6    1    1    2  502    0 -0.53947031783E+02  0.34788908489E+03 -0.67583740333E+03  0.78120246631E+03  0.17200000000E+03 0. -1.
         -6    1    1    2    0  501  0.53947031783E+02 -0.34788908489E+03 -0.80604848821E+02  0.40002279845E+03  0.17200000000E+03 0.  1.
</event>
<event>
 4    1  0.3196149E-002  0.1909895E+03  0.7818608E-02  0.1157572E+00
         -1   -1    0    0    0  501 -0.00000000000E+00  0.00000000000E+00  0.11029602316E+03  0.11029602316E+03  0.00000000000E+00 0.  1.
          1   -1    0    0  502    0  0.00000000000E+00 -0.00000000000E+00 -0.49521473126E+03  0.49521473126E+03  0.00000000000E+00 0. -1.
          6    1    1    2  502    0 -0.77025123674E+02  0.30985840827E+02 -0.36695009451E+03  0.41367785035E+03  0.17200000000E+03 0. -1.
         -6    1    1    2    0  501  0.77025123674E+02 -0.30985840827E+02 -0.17968613586E+02  0.19183290407E+03  0.17200000000E+03 0.  1.
</event>
<event>
 4    1  0.3196149E-002  0.1771062E+03  0.7818608E-02  0.1170633E+00
          2   -1    0    0  502    0  0.00000000000E+00  0.00000000000E+00  0.72620852410E+03  0.72620852410E+03  0.00000000000E+00 0. -1.
         -2   -1    0    0    0  501 -0.00000000000E+00 -0.00000000000E+00 -0.46828548005E+02  0.46828548005E+02  0.00000000000E+00 0.  1.
          6    1    1    2  502    0 -0.98854709023E+01 -0.41047332374E+02  0.23198332183E+03  0.29186104166E+03  0.17200000000E+03 0.  1.
         -6    1    1    2    0  501  0.98854709023E+01  0.41047332374E+02  0.44739665426E+03  0.48117603044E+03  0.17200000000E+03 0. -1.
</event>
<event>
 4    1  0.3196149E-002  0.2249825E+03  0.7818608E-02  0.1130222E+00
         -2   -1    0    0    0  501 -0.00000000000E+00  0.00000000000E+00  0.84469714810E+02  0.84469714810E+02  0.00000000000E+00 0.  1.
          2   -1    0    0  502    0  0.00000000000E+00 -0.00000000000E+00 -0.89009687026E+03  0.89009687026E+03  0.00000000000E+00 0. -1.
          6    1    1    2  502    0  0.60641000304E+02 -0.13174135164E+03 -0.68136611517E+03  0.71754923005E+03  0.17200000000E+03 0. -1.
         -6    1    1    2    0  501 -0.60641000304E+02  0.13174135164E+03 -0.12426104029E+03  0.25701735502E+03  0.17200000000E+03 0.  1.
</event>
<event>
 4    1  0.3196149E-002  0.6526500E+03  0.7818608E-02  0.9801819E-01
          1   -1    0    0  502    0  0.00000000000E+00  0.00000000000E+00  0.75039404708E+03  0.75039404708E+03  0.00000000000E+00 0. -1.
         -1   -1    0    0    0  501 -0.00000000000E+00 -0.00000000000E+00 -0.77265717468E+03  0.77265717468E+03  0.00000000000E+00 0.  1.
          6    1    1    2  502    0 -0.35177575971E+03  0.52213203042E+03  0.38114153130E+03  0.75579157788E+03  0.17200000000E+03 0. -1.
         -6    1    1    2    0  501  0.35177575971E+03 -0.52213203042E+03 -0.40340465890E+03  0.76725964388E+03  0.17200000000E+03 0.  1.
</event>
<event>
 4    1  0.3196149E-002  0.3889121E+03  0.7818608E-02  0.1047688E+00
         -1   -1    0    0    0  501 -0.00000000000E+00  0.00000000000E+00  0.73612688546E+02  0.73612688546E+02  0.00000000000E+00 0.  1.
          1   -1    0    0  502    0  0.00000000000E+00 -0.00000000000E+00 -0.27126901798E+04  0.27126901798E+04  0.00000000000E+00 0. -1.
          6    1    1    2  502    0  0.29552293213E+03  0.18529658853E+03 -0.20056666381E+04  0.20430250347E+04  0.17200000000E+03 0. -1.
         -6    1    1    2    0  501 -0.29552293213E+03 -0.18529658853E+03 -0.63341085318E+03  0.74327783370E+03  0.17200000000E+03 0.  1.
</event>
<event>
 4    1  0.3196149E-002  0.1966547E+03  0.7818608E-02  0.1152593E+00
          2   -1    0    0  502    0  0.00000000000E+00  0.00000000000E+00  0.96814501052E+03  0.96814501052E+03  0.00000000000E+00 0. -1.
         -2   -1    0    0    0  501 -0.00000000000E+00 -0.00000000000E+00 -0.40241433226E+02  0.40241433226E+02  0.00000000000E+00 0.  1.
          6    1    1    2  502    0 -0.94873852063E+02 -0.93817306445E+01  0.50718682267E+03  0.54397751586E+03  0.17200000000E+03 0.  1.
         -6    1    1    2    0  501  0.94873852063E+02  0.93817306445E+01  0.42071675463E+03  0.46440892788E+03  0.17200000000E+03 0.  1.
</event>
<event>
 4    1  0.3196149E-002  0.2918930E+03  0.7818608E-02  0.1089365E+00
         -2   -1    0    0    0  501 -0.00000000000E+00  0.00000000000E+00  0.32541756416E+02  0.32541756416E+02  0.00000000000E+00 0.  1.
          2   -1    0    0  502    0  0.00000000000E+00 -0.00000000000E+00 -0.28398627076E+04  0.28398627076E+04  0.00000000000E+00 0. -1.
          6    1    1    2  502    0  0.18644834148E+03  0.14441107728E+03 -0.18048888770E+04  0.18283395204E+04  0.17200000000E+03 0. -1.
         -6    1    1    2    0  501 -0.18644834148E+03 -0.14441107728E+03 -0.10024320742E+04  0.10440649437E+04  0.17200000000E+03 0.  1.
</event>
<event>
 4    1  0.3196149E-002  0.4174235E+03  0.7818608E-02  0.1037908E+00
         -1   -1    0    0    0  501 -0.00000000000E+00  0.00000000000E+00  0.14998926633E+03  0.14998926633E+03  0.00000000000E+00 0.  1.
          1   -1    0    0  502    0  0.00000000000E+00 -0.00000000000E+00 -0.25773253512E+04  0.25773253512E+04  0.00000000000E+00 0. -1.
          6    1    1    2  502    0 -0.36220031766E+03 -0.11605739451E+03 -0.22243044338E+04  0.22631333595E+04  0.17200000000E+03 0. -1.
         -6    1    1    2    0  501  0.36220031766E+03  0.11605739451E+03 -0.20303165112E+03  0.46418125801E+03  0.17200000000E+03 0.  1.
</event>
<event>
 4    1  0.3196149E-002  0.2205597E+03  0.7818608E-02  0.1133466E+00
         -2   -1    0    0    0  501 -0.00000000000E+00  0.00000000000E+00  0.38666004632E+03  0.38666004632E+03  0.00000000000E+00 0.  1.
          2   -1    0    0  502    0  0.00000000000E+00 -0.00000000000E+00 -0.12708112549E+03  0.12708112549E+03  0.00000000000E+00 0. -1.
          6    1    1    2  502    0 -0.13548495808E+03 -0.26578318037E+02  0.10412224639E+03  0.24390166676E+03  0.17200000000E+03 0. -1.
         -6    1    1    2    0  501  0.13548495808E+03  0.26578318037E+02  0.15545667445E+03  0.26983950505E+03  0.17200000000E+03 0.  1.
</event>
<event>
 4    1  0.3196149E-002  0.2945620E+03  0.7818608E-02  0.1087991E+00
          2   -1    0    0  502    0  0.00000000000E+00  0.00000000000E+00  0.71332210564E+03  0.71332210564E+03  0.00000000000E+00 0. -1.
         -2   -1    0    0    0  501 -0.00000000000E+00 -0.00000000000E+00 -0.13620606656E+03  0.13620606656E+03  0.00000000000E+00 0.  1.
          6    1    1    2  502    0 -0.23905697230E+03 -0.58773755073E+01  0.14964060826E+03  0.33039232919E+03  0.17200000000E+03 0.  1.
         -6    1    1    2    0  501  0.23905697230E+03  0.58773755073E+01  0.42747543082E+03  0.51913584302E+03  0.17200000000E+03 0.  1.
</event>
<event>
 4    1  0.3196149E-002  0.1847036E+03  0.7818608E-02  0.1163327E+00
          4   -1    0    0  502    0  0.00000000000E+00  0.00000000000E+00  0.30797446170E+03  0.30797446170E+03  0.00000000000E+00 0. -1.
         -4   -1    0    0    0  501 -0.00000000000E+00 -0.00000000000E+00 -0.15923305579E+03  0.15923305579E+03  0.00000000000E+00 0.  1.
          6    1    1    2  502    0 -0.12098594391E+01 -0.67305041683E+02  0.20324092775E+03  0.27463122020E+03  0.17200000000E+03 0. -1.
         -6    1    1    2    0  501  0.12098594391E+01  0.67305041683E+02 -0.54499521838E+02  0.19257629729E+03  0.17200000000E+03 0.  1.
</event>
<event>
 4    1  0.3196149E-002  0.2499247E+03  0.7818608E-02  0.1113352E+00
          2   -1    0    0  502    0  0.00000000000E+00  0.00000000000E+00  0.21136428433E+04  0.21136428433E+04  0.00000000000E+00 0. -1.
         -2   -1    0    0    0  501 -0.00000000000E+00 -0.00000000000E+00 -0.34065839831E+02  0.34065839831E+02  0.00000000000E+00 0.  1.
          6    1    1    2  502    0  0.14753418542E+03 -0.10541364467E+03  0.14306824269E+04  0.14523479539E+04  0.17200000000E+03 0. -1.
         -6    1    1    2    0  501 -0.14753418542E+03  0.10541364467E+03  0.64889457651E+03  0.69536072924E+03  0.17200000000E+03 0.  1.
</event>
<event>
 4    1  0.3196149E-002  0.2046642E+03  0.7818608E-02  0.1145862E+00
          1   -1    0    0  502    0  0.00000000000E+00  0.00000000000E+00  0.12587696294E+03  0.12587696294E+03  0.00000000000E+00 0. -1.
         -1   -1    0    0    0  501 -0.00000000000E+00 -0.00000000000E+00 -0.37708581072E+03  0.37708581072E+03  0.00000000000E+00 0.  1.
          6    1    1    2  502    0  0.15421251341E+02 -0.10984357247E+03 -0.21182093849E+03  0.29454292622E+03  0.17200000000E+03 0.  1.
         -6    1    1    2    0  501 -0.15421251341E+02  0.10984357247E+03 -0.39387909294E+02  0.20841984743E+03  0.17200000000E+03 0. -1.
</event>
<event>
 4    1  0.3196149E-002  0.5758261E+03  0.7818608E-02  0.9956869E-01
         -1   -1    0    0    0  501 -0.00000000000E+00  0.00000000000E+00  0.23728731038E+03  0.23728731038E+03  0.00000000000E+00 0.  1.
          1   -1    0    0  502    0  0.00000000000E+00 -0.00000000000E+00 -0.14012737393E+04  0.14012737393E+04  0.00000000000E+00 0. -1.
          6    1    1    2  502    0  0.26430380593E+03 -0.48180411844E+03 -0.62529313602E+03  0.85003953810E+03  0.17200000000E+03 0. -1.
         -6    1    1    2    0  501 -0.26430380593E+03  0.48180411844E+03 -0.53869329286E+03  0.78852151154E+03  0.17200000000E+03 0.  1.
</event>
<event>
 4    1  0.3196149E-002  0.7230796E+03  0.7818608E-02  0.9678557E-01
         -2   -1    0    0    0  501 -0.00000000000E+00  0.00000000000E+00  0.14383969177E+04  0.14383969177E+04  0.00000000000E+00 0.  1.
          2   -1    0    0  502    0  0.00000000000E+00 -0.00000000000E+00 -0.38647488794E+03  0.38647488794E+03  0.00000000000E+00 0. -1.
          6    1    1    2  502    0 -0.12771887084E+02  0.70220863727E+03  0.30344817976E+03  0.78417146668E+03  0.17200000000E+03 0. -1.
         -6    1    1    2    0  501  0.12771887084E+02 -0.70220863727E+03  0.74847384996E+03  0.10407003389E+04  0.17200000000E+03 0.  1.
</event>
<event>
 4    1  0.3196149E-002  0.1933517E+03  0.7818608E-02  0.1155473E+00
         -2   -1    0    0    0  501 -0.00000000000E+00  0.00000000000E+00  0.48218546776E+03  0.48218546776E+03  0.00000000000E+00 0.  1.
          2   -1    0    0  502    0  0.00000000000E+00 -0.00000000000E+00 -0.36903967703E+03  0.36903967703E+03  0.00000000000E+00 0. -1.
          6    1    1    2  502    0  0.87785696150E+02 -0.97237241713E+01  0.43484367901E+03  0.47589274467E+03  0.17200000000E+03 0.  1.
         -6    1    1    2    0  501 -0.87785696150E+02  0.97237241713E+01 -0.32169788828E+03  0.37533240012E+03  0.17200000000E+03 0. -1.
</event>
<event>
 4    1  0.3196149E-002  0.2591321E+03  0.7818608E-02  0.1107666E+00
         -2   -1    0    0    0  501 -0.00000000000E+00  0.00000000000E+00  0.22638984727E+03  0.22638984727E+03  0.00000000000E+00 0.  1.
          2   -1    0    0  502    0  0.00000000000E+00 -0.00000000000E+00 -0.31165528182E+03  0.31165528182E+03  0.00000000000E+00 0. -1.
          6    1    1    2  502    0  0.18197585704E+03 -0.66710204241E+02 -0.10174169602E+03  0.27838972073E+03  0.17200000000E+03 0. -1.
         -6    1    1    2    0  501 -0.18197585704E+03  0.66710204241E+02  0.16476261473E+02  0.25965540836E+03  0.17200000000E+03 0.  1.
</event>
<event>
 4    1  0.3196149E-002  0.2028240E+03  0.7818608E-02  0.1147378E+00
         -2   -1    0    0    0  501 -0.00000000000E+00  0.00000000000E+00  0.99133147152E+02  0.99133147152E+02  0.00000000000E+00 0.  1.
          2   -1    0    0  502    0  0.00000000000E+00 -0.00000000000E+00 -0.98303869799E+03  0.98303869799E+03  0.00000000000E+00 0. -1.
          6    1    1    2  502    0 -0.91039367963E+02 -0.57143780760E+02 -0.85327314331E+03  0.87704768131E+03  0.17200000000E+03 0. -1.
         -6    1    1    2    0  501  0.91039367963E+02  0.57143780760E+02 -0.30632407533E+02  0.20512416384E+03  0.17200000000E+03 0.  1.
</event>
<event>
 4    1  0.3196149E-002  0.2374757E+03  0.7818608E-02  0.1121486E+00
         -2   -1    0    0    0  501 -0.00000000000E+00  0.00000000000E+00  0.84136842832E+03  0.84136842832E+03  0.00000000000E+00 0.  1.
          2   -1    0    0  502    0  0.00000000000E+00 -0.00000000000E+00 -0.70755916987E+02  0.70755916987E+02  0.00000000000E+00 0. -1.
          6    1    1    2  502    0 -0.15557344690E+03 -0.51064643608E+02  0.48999830677E+03  0.54451174078E+03  0.17200000000E+03 0.  1.
         -6    1    1    2    0  501  0.15557344690E+03  0.51064643608E+02  0.28061420457E+03  0.36761260453E+03  0.17200000000E+03 0. -1.
</event>
<event>
 4    1  0.3196149E-002  0.1939649E+03  0.7818608E-02  0.1154933E+00
          2   -1    0    0  502    0  0.00000000000E+00  0.00000000000E+00  0.98444639842E+03  0.98444639842E+03  0.00000000000E+00 0. -1.
         -2   -1    0    0    0  501 -0.00000000000E+00 -0.00000000000E+00 -0.39941706614E+02  0.39941706614E+02  0.00000000000E+00 0.  1.
          6    1    1    2  502    0  0.71396568186E+02 -0.54230214980E+02  0.36581239887E+03  0.41405446180E+03  0.17200000000E+03 0.  1.
         -6    1    1    2    0  501 -0.71396568186E+02  0.54230214980E+02  0.57869229293E+03  0.61033364324E+03  0.17200000000E+03 0.  1.
</event>
<event>
 4    1  0.3196149E-002  0.2961931E+03  0.7818608E-02  0.1087159E+00
         -2   -1    0    0    0  501 -0.00000000000E+00  0.00000000000E+00  0.15197164488E+03  0.15197164488E+03  0.00000000000E+00 0.  1.
          2   -1    0    0  502    0  0.00000000000E+00 -0.00000000000E+00 -0.75268705597E+03  0.75268705597E+03  0.00000000000E+00 0. -1.
          6    1    1    2  502    0 -0.23764189790E+03  0.40898683213E+02 -0.51871594595E+03  0.59732454035E+03  0.17200000000E+03 0. -1.
         -6    1    1    2    0  501  0.23764189790E+03 -0.40898683213E+02 -0.81999465151E+02  0.30733416050E+03  0.17200000000E+03 0.  1.
</event>
<event>
 4    1  0.3196149E-002  0.2106739E+03  0.7818608E-02  0.1141033E+00
         -2   -1    0    0    0  501 -0.00000000000E+00  0.00000000000E+00  0.13636223357E+03  0.13636223357E+03  0.00000000000E+00 0.  1.
          2   -1    0    0  502    0  0.00000000000E+00 -0.00000000000E+00 -0.34681393613E+03  0.34681393613E+03  0.00000000000E+00 0. -1.
          6    1    1    2  502    0 -0.11936065788E+03  0.23506113333E+02 -0.16514126094E+03  0.26768477745E+03  0.17200000000E+03 0. -1.
         -6    1    1    2    0  501  0.11936065788E+03 -0.23506113333E+02 -0.45310441626E+02  0.21549139225E+03  0.17200000000E+03 0.  1.
</event>
<event>
 4    1  0.3196149E-002  0.2937526E+03  0.7818608E-02  0.1088406E+00
          3   -1    0    0  502    0  0.00000000000E+00  0.00000000000E+00  0.19504426162E+03  0.19504426162E+03  0.00000000000E+00 0. -1.
         -3   -1    0    0    0  501 -0.00000000000E+00 -0.00000000000E+00 -0.11900416182E+04  0.11900416182E+04  0.00000000000E+00 0.  1.
          6    1    1    2  502    0  0.20294982050E+03  0.12457102261E+03  0.51419882820E+02  0.29821900285E+03  0.17200000000E+03 0. -1.
         -6    1    1    2    0  501 -0.20294982050E+03 -0.12457102261E+03 -0.10464172394E+04  0.10868668769E+04  0.17200000000E+03 0.  1.
</event>
<event>
 4    1  0.3196149E-002  0.1742248E+03  0.7818608E-02  0.1173512E+00
          1   -1    0    0  502    0  0.00000000000E+00  0.00000000000E+00  0.15596455798E+04  0.15596455798E+04  0.00000000000E+00 0. -1.
         -1   -1    0    0    0  501 -0.00000000000E+00 -0.00000000000E+00 -0.21445985521E+02  0.21445985521E+02  0.00000000000E+00 0.  1.
          6    1    1    2  502    0  0.96685262202E+01  0.26015589480E+02  0.10095307372E+04  0.10244542941E+04  0.17200000000E+03 0. -1.
         -6    1    1    2    0  501 -0.96685262202E+01 -0.26015589480E+02  0.52866885708E+03  0.55663727125E+03  0.17200000000E+03 0. -1.
</event>
<event>
 4    1  0.3196149E-002  0.2030957E+03  0.7818608E-02  0.1147153E+00
         -1   -1    0    0    0  501 -0.00000000000E+00  0.00000000000E+00  0.55147930963E+03  0.55147930963E+03  0.00000000000E+00 0.  1.
          1   -1    0    0  502    0  0.00000000000E+00 -0.00000000000E+00 -0.96968245507E+02  0.96968245507E+02  0.00000000000E+00 0. -1.
          6    1    1    2  502    0 -0.10029842348E+03  0.40050948041E+02  0.72214916162E+02  0.21555242125E+03  0.17200000000E+03 0. -1.
         -6    1    1    2    0  501  0.10029842348E+03 -0.40050948041E+02  0.38229614796E+03  0.43289513388E+03  0.17200000000E+03 0.  1.
</event>
<event>
 4    1  0.3196149E-002  0.4587852E+03  0.7818608E-02  0.1025134E+00
          1   -1    0    0  502    0  0.00000000000E+00  0.00000000000E+00  0.73520353982E+03  0.73520353982E+03  0.00000000000E+00 0. -1.
         -1   -1    0    0    0  501 -0.00000000000E+00 -0.00000000000E+00 -0.57755796231E+03  0.57755796231E+03  0.00000000000E+00 0.  1.
          6    1    1    2  502    0 -0.22935388175E+03 -0.35818521488E+03  0.54494730279E+03  0.71235624097E+03  0.17200000000E+03 0. -1.
         -6    1    1    2    0  501  0.22935388175E+03  0.35818521488E+03 -0.38730172528E+03  0.60040526117E+03  0.17200000000E+03 0.  1.
</event>
<event>
 4    1  0.3196149E-002  0.2030461E+03  0.7818608E-02  0.1147194E+00
         -2   -1    0    0    0  501 -0.00000000000E+00  0.00000000000E+00  0.21854704666E+03  0.21854704666E+03  0.00000000000E+00 0.  1.
          2   -1    0    0  502    0  0.00000000000E+00 -0.00000000000E+00 -0.29380032027E+03  0.29380032027E+03  0.00000000000E+00 0. -1.
          6    1    1    2  502    0 -0.43527838292E+02 -0.98737191436E+02 -0.19088527736E+03  0.27868422057E+03  0.17200000000E+03 0. -1.
         -6    1    1    2    0  501  0.43527838292E+02  0.98737191436E+02  0.11563200375E+03  0.23366314637E+03  0.17200000000E+03 0.  1.
</event>
<event>
 4    1  0.3196149E-002  0.4073784E+03  0.7818608E-02  0.1041254E+00
         -2   -1    0    0    0  501 -0.00000000000E+00  0.00000000000E+00  0.95725576743E+02  0.95725576743E+02  0.00000000000E+00 0.  1.
          2   -1    0    0  502    0  0.00000000000E+00 -0.00000000000E+00 -0.26693865226E+04  0.26693865226E+04  0.00000000000E+00 0. -1.
          6    1    1    2  502    0 -0.27970296249E+03  0.24112110589E+03 -0.46827564945E+03  0.62067642037E+03  0.17200000000E+03 0.  1.
         -6    1    1    2    0  501  0.27970296249E+03 -0.24112110589E+03 -0.21053852964E+04  0.21444356790E+04  0.17200000000E+03 0. -1.
</event>
<event>
 4    1  0.3196149E-002  0.2215319E+03  0.7818608E-02  0.1132746E+00
         -2   -1    0    0    0  501 -0.00000000000E+00  0.00000000000E+00  0.45791157966E+02  0.45791157966E+02  0.00000000000E+00 0.  1.
          2   -1    0    0  502    0  0.00000000000E+00 -0.00000000000E+00 -0.11507829139E+04  0.11507829139E+04  0.00000000000E+00 0. -1.
          6    1    1    2  502    0  0.67588051235E+02 -0.12216479952E+03 -0.70929164180E+03  0.74308210586E+03  0.17200000000E+03 0. -1.
         -6    1    1    2    0  501 -0.67588051235E+02  0.12216479952E+03 -0.39570011414E+03  0.45349196601E+03  0.17200000000E+03 0.  1.
</event>
<event>
 4    1  0.3196149E-002  0.3108006E+03  0.7818608E-02  0.1079963E+00
          4   -1    0    0  502    0  0.00000000000E+00  0.00000000000E+00  0.43739272993E+03  0.43739272993E+03  0.00000000000E+00 0. -1.
         -4   -1    0    0    0  501 -0.00000000000E+00 -0.00000000000E+00 -0.47417682584E+03  0.47417682584E+03  0.00000000000E+00 0.  1.
          6    1    1    2  502    0  0.14852949545E+03  0.21201881191E+03  0.31475240795E+03  0.44234157156E+03  0.17200000000E+03 0. -1.
         -6    1    1    2    0  501 -0.14852949545E+03 -0.21201881191E+03 -0.35153650386E+03  0.46922798421E+03  0.17200000000E+03 0.  1.
</event>
<event>
 4    1  0.3196149E-002  0.2300863E+03  0.7818608E-02  0.1126579E+00
         -1   -1    0    0    0  501 -0.00000000000E+00  0.00000000000E+00  0.88739192186E+02  0.88739192186E+02  0.00000000000E+00 0.  1.
          1   -1    0    0  502    0  0.00000000000E+00 -0.00000000000E+00 -0.79900049812E+03  0.79900049812E+03  0.00000000000E+00 0. -1.
          6    1    1    2  502    0  0.12823641096E+03  0.83133087349E+02 -0.13171506503E+03  0.26511987037E+03  0.17200000000E+03 0.  1.
         -6    1    1    2    0  501 -0.12823641096E+03 -0.83133087349E+02 -0.57854624091E+03  0.62261981994E+03  0.17200000000E+03 0. -1.
</event>
<event>
 4    1  0.3196149E-002  0.1788013E+03  0.7818608E-02  0.1168968E+00
         -1   -1    0    0    0  501 -0.00000000000E+00  0.00000000000E+00  0.25638159134E+03  0.25638159134E+03  0.00000000000E+00 0.  1.
          1   -1    0    0  502    0  0.00000000000E+00 -0.00000000000E+00 -0.21730265592E+03  0.21730265592E+03  0.00000000000E+00 0. -1.
          6    1    1    2  502    0  0.24519636430E+02 -0.42245735793E+02 -0.13507356713E+03  0.22408655314E+03  0.17200000000E+03 0. -1.
         -6    1    1    2    0  501 -0.24519636430E+02  0.42245735793E+02  0.17415250255E+03  0.24959769411E+03  0.17200000000E+03 0.  1.
</event>
<event>
 4    1  0.3196149E-002  0.1097730E+04  0.7818608E-02  0.9207408E-01
          2   -1    0    0  502    0  0.00000000000E+00  0.00000000000E+00  0.35796090787E+04  0.35796090787E+04  0.00000000000E+00 0. -1.
         -2   -1    0    0    0  501 -0.00000000000E+00 -0.00000000000E+00 -0.42677072637E+03  0.42677072637E+03  0.00000000000E+00 0.  1.
          6    1    1    2  502    0  0.45921371823E+03 -0.98211452102E+03  0.24970405488E+04  0.27276769738E+04  0.17200000000E+03 0. -1.
         -6    1    1    2    0  501 -0.45921371823E+03  0.98211452102E+03  0.65579780354E+03  0.12787028312E+04  0.17200000000E+03 0.  1.
</event>
<event>
 4    1  0.3196149E-002  0.1228179E+04  0.7818608E-02  0.9088543E-01
          2   -1    0    0  502    0  0.00000000000E+00  0.00000000000E+00  0.20498087372E+04  0.20498087372E+04  0.00000000000E+00 0. -1.
         -2   -1    0    0    0  501 -0.00000000000E+00 -0.00000000000E+00 -0.18389310757E+04  0.18389310757E+04  0.00000000000E+00 0.  1.
          6    1    1    2  502    0 -0.18245834856E+02 -0.12159381493E+04  0.16113282736E+04  0.20260309224E+04  0.17200000000E+03 0. -1.
         -6    1    1    2    0  501  0.18245834856E+02  0.12159381493E+04 -0.14004506121E+04  0.18627088904E+04  0.17200000000E+03 0.  1.
</event>
<event>
 4    1  0.3196149E-002  0.2108274E+03  0.7818608E-02  0.1140912E+00
         -2   -1    0    0    0  501 -0.00000000000E+00  0.00000000000E+00  0.22038296683E+03  0.22038296683E+03  0.00000000000E+00 0.  1.
          2   -1    0    0  502    0  0.00000000000E+00 -0.00000000000E+00 -0.53481420754E+03  0.53481420754E+03  0.00000000000E+00 0. -1.
          6    1    1    2  502    0 -0.20609823802E+02 -0.12016417769E+03 -0.45522812811E+03  0.50167802729E+03  0.17200000000E+03 0. -1.
         -6    1    1    2    0  501  0.20609823802E+02  0.12016417769E+03  0.14079688740E+03  0.25351914709E+03  0.17200000000E+03 0.  1.
</event>
<event>
 4    1  0.3196149E-002  0.2070138E+03  0.7818608E-02  0.1143953E+00
         -1   -1    0    0    0  501 -0.00000000000E+00  0.00000000000E+00  0.58293380269E+02  0.58293380269E+02  0.00000000000E+00 0.  1.
          1   -1    0    0  502    0  0.00000000000E+00 -0.00000000000E+00 -0.78065636030E+03  0.78065636030E+03  0.00000000000E+00 0. -1.
          6    1    1    2  502    0 -0.39174084401E+02 -0.10833334263E+03 -0.46245221681E+03  0.50667225585E+03  0.17200000000E+03 0. -1.
         -6    1    1    2    0  501  0.39174084401E+02  0.10833334263E+03 -0.25991076323E+03  0.33227748473E+03  0.17200000000E+03 0.  1.
</event>
<event>
 4    1  0.3196149E-002  0.3234239E+03  0.7818608E-02  0.1074084E+00
          1   -1    0    0  502    0  0.00000000000E+00  0.00000000000E+00  0.11964226005E+04  0.11964226005E+04  0.00000000000E+00 0. -1.
         -1   -1    0    0    0  501 -0.00000000000E+00 -0.00000000000E+00 -0.11990642286E+03  0.11990642286E+03  0.00000000000E+00 0.  1.
          6    1    1    2  502    0  0.13190480352E+02  0.27357818593E+03  0.88078802624E+03  0.93829129792E+03  0.17200000000E+03 0. -1.
         -6    1    1    2    0  501 -0.13190480352E+02 -0.27357818593E+03  0.19572815135E+03  0.37803772540E+03  0.17200000000E+03 0.  1.
</event>
<event>
 4    1  0.3196149E-002  0.1815553E+03  0.7818608E-02  0.1166306E+00
         -2   -1    0    0    0  501 -0.00000000000E+00  0.00000000000E+00  0.28373442364E+02  0.28373442364E+02  0.00000000000E+00 0.  1.
          2   -1    0    0  502    0  0.00000000000E+00 -0.00000000000E+00 -0.11843341194E+04  0.11843341194E+04  0.00000000000E+00 0. -1.
          6    1    1    2  502    0 -0.55780451307E+02  0.16335591569E+02 -0.49421347874E+03  0.52650666935E+03  0.17200000000E+03 0.  1.
         -6    1    1    2    0  501  0.55780451307E+02 -0.16335591569E+02 -0.66174719829E+03  0.68620089241E+03  0.17200000000E+03 0. -1.
</event>
<event>
 4    1  0.3196149E-002  0.2079770E+03  0.7818608E-02  0.1143178E+00
          1   -1    0    0  502    0  0.00000000000E+00  0.00000000000E+00  0.55028727911E+03  0.55028727911E+03  0.00000000000E+00 0. -1.
         -1   -1    0    0    0  501 -0.00000000000E+00 -0.00000000000E+00 -0.34566339297E+03  0.34566339297E+03  0.00000000000E+00 0.  1.
          6    1    1    2  502    0 -0.11690886831E+03 -0.16609230802E+01 -0.29144827736E+03  0.35804544479E+03  0.17200000000E+03 0.  1.
         -6    1    1    2    0  501  0.11690886831E+03  0.16609230802E+01  0.49607216350E+03  0.53790522730E+03  0.17200000000E+03 0. -1.
</event>
<event>
 4    1  0.3196149E-002  0.4029365E+03  0.7818608E-02  0.1042768E+00
         -2   -1    0    0    0  501 -0.00000000000E+00  0.00000000000E+00  0.18600348458E+03  0.18600348458E+03  0.00000000000E+00 0.  1.
          2   -1    0    0  502    0  0.00000000000E+00 -0.00000000000E+00 -0.90743058934E+03  0.90743058934E+03  0.00000000000E+00 0. -1.
          6    1    1    2  502    0 -0.31628517970E+03  0.18093498947E+03 -0.46740147648E+03  0.61710770982E+03  0.17200000000E+03 0. -1.
         -6    1    1    2    0  501  0.31628517970E+03 -0.18093498947E+03 -0.25402562829E+03  0.47632636410E+03  0.17200000000E+03 0.  1.
</event>
<event>
 4    1  0.3196149E-002  0.3860777E+03  0.7818608E-02  0.1048710E+00
          1   -1    0    0  502    0  0.00000000000E+00  0.00000000000E+00  0.16799702320E+03  0.16799702320E+03  0.00000000000E+00 0. -1.
         -1   -1    0    0    0  501 -0.00000000000E+00 -0.00000000000E+00 -0.90927245562E+03  0.90927245562E+03  0.00000000000E+00 0.  1.
          6    1    1    2  502    0  0.32706393679E+03 -0.11180874243E+03 -0.28681885071E+03  0.48095848756E+03  0.17200000000E+03 0. -1.
         -6    1    1    2    0  501 -0.32706393679E+03  0.11180874243E+03 -0.45445658172E+03  0.59631099126E+03  0.17200000000E+03 0.  1.
</event>
<event>
 4    1  0.3196149E-002  0.3034987E+03  0.7818608E-02  0.1083505E+00
         -2   -1    0    0    0  501 -0.00000000000E+00  0.00000000000E+00  0.59218838973E+02  0.59218838973E+02  0.00000000000E+00 0.  1.
          2   -1    0    0  502    0  0.00000000000E+00 -0.00000000000E+00 -0.21722618607E+04  0.21722618607E+04  0.00000000000E+00 0. -1.
          6    1    1    2  502    0 -0.12620663732E+02  0.24973623149E+03 -0.16510685794E+04  0.16787313426E+04  0.17200000000E+03 0.  1.
         -6    1    1    2    0  501  0.12620663732E+02 -0.24973623149E+03 -0.46197444232E+03  0.55274935714E+03  0.17200000000E+03 0.  1.
</event>
<event>
 4    1  0.3196149E-002  0.8575136E+03  0.7818608E-02  0.9480308E-01
         -2   -1    0    0    0  501 -0.00000000000E+00  0.00000000000E+00  0.31523207820E+04  0.31523207820E+04  0.00000000000E+00 0.  1.
          2   -1    0    0  502    0  0.00000000000E+00 -0.00000000000E+00 -0.42560010460E+03  0.42560010460E+03  0.00000000000E+00 0. -1.
          6    1    1    2  502    0 -0.77734703980E+03  0.31855490886E+03  0.16074182644E+03  0.87244918764E+03  0.17200000000E+03 0. -1.
         -6    1    1    2    0  501  0.77734703980E+03 -0.31855490886E+03  0.25659788509E+04  0.27054716989E+04  0.17200000000E+03 0.  1.
</event>
<event>
 4    1  0.3196149E-002  0.2721003E+03  0.7818608E-02  0.1100084E+00
         -1   -1    0    0    0  501 -0.00000000000E+00  0.00000000000E+00  0.10862570073E+03  0.10862570073E+03  0.00000000000E+00 0.  1.
          1   -1    0    0  502    0  0.00000000000E+00 -0.00000000000E+00 -0.82560491814E+03  0.82560491814E+03  0.00000000000E+00 0. -1.
          6    1    1    2  502    0 -0.20064855267E+03  0.64766812128E+02 -0.55358018383E+03  0.61683839178E+03  0.17200000000E+03 0. -1.
         -6    1    1    2    0  501  0.20064855267E+03 -0.64766812128E+02 -0.16339903358E+03  0.31739222709E+03  0.17200000000E+03 0.  1.
</event>
<event>
 4    1  0.3196149E-002  0.1776565E+03  0.7818608E-02  0.1170091E+00
          1   -1    0    0  502    0  0.00000000000E+00  0.00000000000E+00  0.27671443786E+03  0.27671443786E+03  0.00000000000E+00 0. -1.
         -1   -1    0    0    0  501 -0.00000000000E+00 -0.00000000000E+00 -0.12363971345E+03  0.12363971345E+03  0.00000000000E+00 0.  1.
          6    1    1    2  502    0  0.36474405483E+02 -0.25444785068E+02  0.13225983730E+03  0.22148246862E+03  0.17200000000E+03 0.  1.
         -6    1    1    2    0  501 -0.36474405483E+02  0.25444785068E+02  0.20814887107E+02  0.17887168269E+03  0.17200000000E+03 0.  1.
</event>
<event>
 4    1  0.3196149E-002  0.3668149E+03  0.7818608E-02  0.1055918E+00
          2   -1    0    0  502    0  0.00000000000E+00  0.00000000000E+00  0.16284030721E+04  0.16284030721E+04  0.00000000000E+00 0. -1.
         -2   -1    0    0    0  501 -0.00000000000E+00 -0.00000000000E+00 -0.89404575456E+02  0.89404575456E+02  0.00000000000E+00 0.  1.
          6    1    1    2  502    0 -0.28461078317E+03  0.15480904640E+03  0.10059503129E+04  0.10707423456E+04  0.17200000000E+03 0. -1.
         -6    1    1    2    0  501  0.28461078317E+03 -0.15480904640E+03  0.53304818376E+03  0.64706530192E+03  0.17200000000E+03 0.  1.
</event>
<event>
 4    1  0.3196149E-002  0.2424162E+03  0.7818608E-02  0.1118194E+00
          2   -1    0    0  502    0  0.00000000000E+00  0.00000000000E+00  0.35711858988E+03  0.35711858988E+03  0.00000000000E+00 0. -1.
         -2   -1    0    0    0  501 -0.00000000000E+00 -0.00000000000E+00 -0.16508269857E+03  0.16508269857E+03  0.00000000000E+00 0.  1.
          6    1    1    2  502    0  0.12640979782E+03 -0.11490081027E+03  0.11078075413E+03  0.26652956435E+03  0.17200000000E+03 0. -1.
         -6    1    1    2    0  501 -0.12640979782E+03  0.11490081027E+03  0.81255137178E+02  0.25567172410E+03  0.17200000000E+03 0.  1.
</event>
<event>
 4    1  0.3196149E-002  0.2444303E+03  0.7818608E-02  0.1116876E+00
          2   -1    0    0  502    0  0.00000000000E+00  0.00000000000E+00  0.83859605897E+03  0.83859605897E+03  0.00000000000E+00 0. -1.
         -2   -1    0    0    0  501 -0.00000000000E+00 -0.00000000000E+00 -0.71466993054E+02  0.71466993054E+02  0.00000000000E+00 0.  1.
          6    1    1    2  502    0  0.15744769363E+03 -0.73296593273E+02  0.40889844988E+03  0.47638651233E+03  0.17200000000E+03 0. -1.
         -6    1    1    2    0  501 -0.15744769363E+03  0.73296593273E+02  0.35823061604E+03  0.43367653969E+03  0.17200000000E+03 0.  1.
</event>
<event>
 4    1  0.3196149E-002  0.1760405E+03  0.7818608E-02  0.1171691E+00
         -3   -1    0    0    0  501 -0.00000000000E+00  0.00000000000E+00  0.41686227437E+02  0.41686227437E+02  0.00000000000E+00 0.  1.
          3   -1    0    0  502    0  0.00000000000E+00 -0.00000000000E+00 -0.82550769754E+03  0.82550769754E+03  0.00000000000E+00 0. -1.
          6    1    1    2  502    0 -0.25153027039E+02 -0.27813574442E+02 -0.52864312345E+03  0.55718383112E+03  0.17200000000E+03 0. -1.
         -6    1    1    2    0  501  0.25153027039E+02  0.27813574442E+02 -0.25517834666E+03  0.31001009386E+03  0.17200000000E+03 0.  1.
</event>
<event>
 4    1  0.3196149E-002  0.1873497E+03  0.7818608E-02  0.1160874E+00
         -3   -1    0    0    0  501 -0.00000000000E+00  0.00000000000E+00  0.27363104383E+02  0.27363104383E+02  0.00000000000E+00 0.  1.
          3   -1    0    0  502    0  0.00000000000E+00 -0.00000000000E+00 -0.14861774466E+04  0.14861774466E+04  0.00000000000E+00 0. -1.
          6    1    1    2  502    0 -0.32880240635E+02 -0.66594258660E+02 -0.44942004927E+03  0.48690685577E+03  0.17200000000E+03 0.  1.
         -6    1    1    2    0  501  0.32880240635E+02  0.66594258660E+02 -0.10093942929E+04  0.10266336952E+04  0.17200000000E+03 0.  1.
</event>
<event>
 4    1  0.3196149E-002  0.1985680E+03  0.7818608E-02  0.1150953E+00
          2   -1    0    0  502    0  0.00000000000E+00  0.00000000000E+00  0.31921268335E+03  0.31921268335E+03  0.00000000000E+00 0. -1.
         -2   -1    0    0    0  501 -0.00000000000E+00 -0.00000000000E+00 -0.16311263463E+03  0.16311263463E+03  0.00000000000E+00 0.  1.
          6    1    1    2  502    0  0.94393251871E+02  0.30580289405E+02  0.19686520332E+03  0.27961607318E+03  0.17200000000E+03 0. -1.
         -6    1    1    2    0  501 -0.94393251871E+02 -0.30580289405E+02 -0.40765154602E+02  0.20270924480E+03  0.17200000000E+03 0.  1.
</event>
<event>
 4    1  0.3196149E-002  0.2274196E+03  0.7818608E-02  0.1128469E+00
          2   -1    0    0  502    0  0.00000000000E+00  0.00000000000E+00  0.21493133996E+03  0.21493133996E+03  0.00000000000E+00 0. -1.
         -2   -1    0    0    0  501 -0.00000000000E+00 -0.00000000000E+00 -0.55214689318E+03  0.55214689318E+03  0.00000000000E+00 0.  1.
          6    1    1    2  502    0  0.11917378763E+03  0.89068861745E+02  0.11947732273E+03  0.25689391670E+03  0.17200000000E+03 0. -1.
         -6    1    1    2    0  501 -0.11917378763E+03 -0.89068861745E+02 -0.45669287595E+03  0.51018431643E+03  0.17200000000E+03 0.  1.
</event>
<event>
 4    1  0.3196149E-002  0.3157899E+03  0.7818608E-02  0.1077603E+00
          1   -1    0    0  502    0  0.00000000000E+00  0.00000000000E+00  0.10071118845E+03  0.10071118845E+03  0.00000000000E+00 0. -1.
         -1   -1    0    0    0  501 -0.00000000000E+00 -0.00000000000E+00 -0.99287678472E+03  0.99287678472E+03  0.00000000000E+00 0.  1.
          6    1    1    2  502    0 -0.44365387739E+02  0.26109577445E+03 -0.41764285110E+03  0.52359224797E+03  0.17200000000E+03 0. -1.
         -6    1    1    2    0  501  0.44365387739E+02 -0.26109577445E+03 -0.47452274517E+03  0.56999572520E+03  0.17200000000E+03 0.  1.
</event>
<event>
 4    1  0.3196149E-002  0.8244483E+03  0.7818608E-02  0.9525288E-01
          2   -1    0    0  502    0  0.00000000000E+00  0.00000000000E+00  0.32205205186E+04  0.32205205186E+04  0.00000000000E+00 0. -1.
         -2   -1    0    0    0  501 -0.00000000000E+00 -0.00000000000E+00 -0.26877012545E+03  0.26877012545E+03  0.00000000000E+00 0.  1.
          6    1    1    2  502    0  0.34534256399E+03 -0.72860796402E+03  0.22843230637E+04  0.24285483135E+04  0.17200000000E+03 0. -1.
         -6    1    1    2    0  501 -0.34534256399E+03  0.72860796402E+03  0.66742732951E+03  0.10607423306E+04  0.17200000000E+03 0.  1.
</event>
<event>
 4    1  0.3196149E-002  0.1756361E+03  0.7818608E-02  0.1172094E+00
          2   -1    0    0  502    0  0.00000000000E+00  0.00000000000E+00  0.17878723968E+04  0.17878723968E+04  0.00000000000E+00 0. -1.
         -2   -1    0    0    0  501 -0.00000000000E+00 -0.00000000000E+00 -0.18285426183E+02  0.18285426183E+02  0.00000000000E+00 0.  1.
          6    1    1    2  502    0  0.17179371406E+02  0.31127577459E+02  0.10992699718E+04  0.11132127056E+04  0.17200000000E+03 0. -1.
         -6    1    1    2    0  501 -0.17179371406E+02 -0.31127577459E+02  0.67031699880E+03  0.69294511742E+03  0.17200000000E+03 0.  1.
</event>
<event>
 4    1  0.3196149E-002  0.2417418E+03  0.7818608E-02  0.1118638E+00
         -2   -1    0    0    0  501 -0.00000000000E+00  0.00000000000E+00  0.13393188702E+03  0.13393188702E+03  0.00000000000E+00 0.  1.
          2   -1    0    0  502    0  0.00000000000E+00 -0.00000000000E+00 -0.94226003677E+03  0.94226003677E+03  0.00000000000E+00 0. -1.
          6    1    1    2  502    0 -0.41893030728E+02  0.16462100036E+03 -0.79845579529E+03  0.83424861810E+03  0.17200000000E+03 0. -1.
         -6    1    1    2    0  501  0.41893030728E+02 -0.16462100036E+03 -0.98723544685E+01  0.24194330569E+03  0.17200000000E+03 0.  1.
</event>
<event>
 4    1  0.3196149E-002  0.3045314E+03  0.7818608E-02  0.1082997E+00
          2   -1    0    0  502    0  0.00000000000E+00  0.00000000000E+00  0.14112809039E+04  0.14112809039E+04  0.00000000000E+00 0. -1.
         -2   -1    0    0    0  501 -0.00000000000E+00 -0.00000000000E+00 -0.68713157978E+02  0.68713157978E+02  0.00000000000E+00 0.  1.
          6    1    1    2  502    0  0.10641852582E+02 -0.25108191583E+03  0.82591199179E+03  0.88026700248E+03  0.17200000000E+03 0. -1.
         -6    1    1    2    0  501 -0.10641852582E+02  0.25108191583E+03  0.51665575409E+03  0.59972705935E+03  0.17200000000E+03 0.  1.
</event>
<event>
 4    1  0.3196149E-002  0.1789182E+03  0.7818608E-02  0.1168854E+00
          1   -1    0    0  502    0  0.00000000000E+00  0.00000000000E+00  0.14518439321E+04  0.14518439321E+04  0.00000000000E+00 0. -1.
         -1   -1    0    0    0  501 -0.00000000000E+00 -0.00000000000E+00 -0.23691267830E+02  0.23691267830E+02  0.00000000000E+00 0.  1.
          6    1    1    2  502    0  0.27715978243E+02  0.40737741609E+02  0.90831893509E+03  0.92577266480E+03  0.17200000000E+03 0. -1.
         -6    1    1    2    0  501 -0.27715978243E+02 -0.40737741609E+02  0.51983372916E+03  0.54976253512E+03  0.17200000000E+03 0. -1.
</event>
<event>
 4    1  0.3196149E-002  0.1982676E+03  0.7818608E-02  0.1151209E+00
          2   -1    0    0  502    0  0.00000000000E+00  0.00000000000E+00  0.12095785683E+04  0.12095785683E+04  0.00000000000E+00 0. -1.
         -2   -1    0    0    0  501 -0.00000000000E+00 -0.00000000000E+00 -0.32613901366E+02  0.32613901366E+02  0.00000000000E+00 0.  1.
          6    1    1    2  502    0  0.41323336070E+02 -0.89545607939E+02  0.62535577384E+03  0.65603344265E+03  0.17200000000E+03 0. -1.
         -6    1    1    2    0  501 -0.41323336070E+02  0.89545607939E+02  0.55160889307E+03  0.58615902699E+03  0.17200000000E+03 0. -1.
</event>
<event>
 4    1  0.3196149E-002  0.1938156E+03  0.7818608E-02  0.1155064E+00
         -2   -1    0    0    0  501 -0.00000000000E+00  0.00000000000E+00  0.17019387166E+03  0.17019387166E+03  0.00000000000E+00 0.  1.
          2   -1    0    0  502    0  0.00000000000E+00 -0.00000000000E+00 -0.23886278634E+03  0.23886278634E+03  0.00000000000E+00 0. -1.
          6    1    1    2  502    0 -0.65335837776E+02  0.60923807427E+02 -0.90708748560E+02  0.21399196030E+03  0.17200000000E+03 0. -1.
         -6    1    1    2    0  501  0.65335837776E+02 -0.60923807427E+02  0.22039833875E+02  0.19506469769E+03  0.17200000000E+03 0.  1.
</event>
<event>
 4    1  0.3196149E-002  0.2372171E+03  0.7818608E-02  0.1121661E+00
         -2   -1    0    0    0  501 -0.00000000000E+00  0.00000000000E+00  0.36176887261E+02  0.36176887261E+02  0.00000000000E+00 0.  1.
          2   -1    0    0  502    0  0.00000000000E+00 -0.00000000000E+00 -0.15554680773E+04  0.15554680773E+04  0.00000000000E+00 0. -1.
          6    1    1    2  502    0 -0.14154521255E+03  0.81565376237E+02 -0.75901374481E+03  0.79521935503E+03  0.17200000000E+03 0. -1.
         -6    1    1    2    0  501  0.14154521255E+03 -0.81565376237E+02 -0.76027744520E+03  0.79642560951E+03  0.17200000000E+03 0.  1.
</event>
<event>
 4    1  0.3196149E-002  0.2120032E+03  0.7818608E-02  0.1139989E+00
          2   -1    0    0  502    0  0.00000000000E+00  0.00000000000E+00  0.56440723040E+02  0.56440723040E+02  0.00000000000E+00 0. -1.
         -2   -1    0    0    0  501 -0.00000000000E+00 -0.00000000000E+00 -0.84642393787E+03  0.84642393787E+03  0.00000000000E+00 0.  1.
          6    1    1    2  502    0  0.27099284532E+02 -0.12094202988E+03 -0.28516727156E+03  0.35533887851E+03  0.17200000000E+03 0. -1.
         -6    1    1    2    0  501 -0.27099284532E+02  0.12094202988E+03 -0.50481594327E+03  0.54752578240E+03  0.17200000000E+03 0.  1.
</event>
<event>
 4    1  0.3196149E-002  0.2081893E+03  0.7818608E-02  0.1143008E+00
         -1   -1    0    0    0  501 -0.00000000000E+00  0.00000000000E+00  0.24726546346E+03  0.24726546346E+03  0.00000000000E+00 0.  1.
          1   -1    0    0  502    0  0.00000000000E+00 -0.00000000000E+00 -0.20582051563E+03  0.20582051563E+03  0.00000000000E+00 0. -1.
          6    1    1    2  502    0  0.87650968657E+01  0.11696985615E+03 -0.66531366801E+02  0.21856165478E+03  0.17200000000E+03 0.  1.
         -6    1    1    2    0  501 -0.87650968657E+01 -0.11696985615E+03  0.10797631463E+03  0.23452432431E+03  0.17200000000E+03 0.  1.
</event>
<event>
 4    1  0.3196149E-002  0.2242783E+03  0.7818608E-02  0.1130733E+00
          2   -1    0    0  502    0  0.00000000000E+00  0.00000000000E+00  0.39744495122E+03  0.39744495122E+03  0.00000000000E+00 0. -1.
         -2   -1    0    0    0  501 -0.00000000000E+00 -0.00000000000E+00 -0.14167430214E+03  0.14167430214E+03  0.00000000000E+00 0.  1.
          6    1    1    2  502    0 -0.12804423064E+03 -0.65737420708E+02  0.39841332930E+02  0.22778951971E+03  0.17200000000E+03 0. -1.
         -6    1    1    2    0  501  0.12804423064E+03  0.65737420708E+02  0.21592931614E+03  0.31132973365E+03  0.17200000000E+03 0.  1.
</event>
<event>
 4    1  0.3196149E-002  0.6335322E+03  0.7818608E-02  0.9838180E-01
          2   -1    0    0  502    0  0.00000000000E+00  0.00000000000E+00  0.10040332426E+04  0.10040332426E+04  0.00000000000E+00 0. -1.
         -2   -1    0    0    0  501 -0.00000000000E+00 -0.00000000000E+00 -0.40130983966E+03  0.40130983966E+03  0.00000000000E+00 0.  1.
          6    1    1    2  502    0 -0.34170109099E+03  0.50499446322E+03  0.34515904505E+03  0.72145534155E+03  0.17200000000E+03 0. -1.
         -6    1    1    2    0  501  0.34170109099E+03 -0.50499446322E+03  0.25756435792E+03  0.68388774075E+03  0.17200000000E+03 0.  1.
</event>
<event>
 4    1  0.3196149E-002  0.1899351E+03  0.7818608E-02  0.1158520E+00
         -4   -1    0    0    0  501 -0.00000000000E+00  0.00000000000E+00  0.15420878505E+03  0.15420878505E+03  0.00000000000E+00 0.  1.
          4   -1    0    0  502    0  0.00000000000E+00 -0.00000000000E+00 -0.34736406169E+03  0.34736406169E+03  0.00000000000E+00 0. -1.
          6    1    1    2  502    0  0.76939077907E+02  0.23910671415E+02  0.46729366983E+02  0.19559901752E+03  0.17200000000E+03 0.  1.
         -6    1    1    2    0  501 -0.76939077907E+02 -0.23910671415E+02 -0.23988464363E+03  0.30597382922E+03  0.17200000000E+03 0. -1.
</event>
<event>
 4    1  0.3196149E-002  0.3141057E+03  0.7818608E-02  0.1078394E+00
          1   -1    0    0  502    0  0.00000000000E+00  0.00000000000E+00  0.33504249098E+03  0.33504249098E+03  0.00000000000E+00 0. -1.
         -1   -1    0    0    0  501 -0.00000000000E+00 -0.00000000000E+00 -0.29879054431E+03  0.29879054431E+03  0.00000000000E+00 0.  1.
          6    1    1    2  502    0  0.36997332668E+02  0.26021062532E+03  0.56203513529E+02  0.31909435452E+03  0.17200000000E+03 0. -1.
         -6    1    1    2    0  501 -0.36997332668E+02 -0.26021062532E+03 -0.19951566861E+02  0.31473868077E+03  0.17200000000E+03 0.  1.
</event>
<event>
 4    1  0.3196149E-002  0.1957017E+03  0.7818608E-02  0.1153417E+00
         -1   -1    0    0    0  501 -0.00000000000E+00  0.00000000000E+00  0.44273046766E+02  0.44273046766E+02  0.00000000000E+00 0.  1.
          1   -1    0    0  502    0  0.00000000000E+00 -0.00000000000E+00 -0.91485694848E+03  0.91485694848E+03  0.00000000000E+00 0. -1.
          6    1    1    2  502    0 -0.92193232661E+02  0.14682331555E+02 -0.54716889903E+03  0.58111355781E+03  0.17200000000E+03 0. -1.
         -6    1    1    2    0  501  0.92193232661E+02 -0.14682331555E+02 -0.32341500269E+03  0.37801643744E+03  0.17200000000E+03 0.  1.
</event>
<event>
 4    1  0.3196149E-002  0.2787706E+03  0.7818608E-02  0.1096362E+00
         -2   -1    0    0    0  501 -0.00000000000E+00  0.00000000000E+00  0.12956838056E+03  0.12956838056E+03  0.00000000000E+00 0.  1.
          2   -1    0    0  502    0  0.00000000000E+00 -0.00000000000E+00 -0.76845714199E+03  0.76845714199E+03  0.00000000000E+00 0. -1.
          6    1    1    2  502    0  0.95193814946E+02 -0.19765421247E+03 -0.52980853613E+03  0.59867364655E+03  0.17200000000E+03 0. -1.
         -6    1    1    2    0  501 -0.95193814946E+02  0.19765421247E+03 -0.10908022530E+03  0.29935187600E+03  0.17200000000E+03 0.  1.
</event>
<event>
 4    1  0.3196149E-002  0.2302308E+03  0.7818608E-02  0.1126477E+00
          2   -1    0    0  502    0  0.00000000000E+00  0.00000000000E+00  0.48322216998E+02  0.48322216998E+02  0.00000000000E+00 0. -1.
         -2   -1    0    0    0  501 -0.00000000000E+00 -0.00000000000E+00 -0.12362479341E+04  0.12362479341E+04  0.00000000000E+00 0.  1.
          6    1    1    2  502    0  0.15079679719E+03  0.26125779016E+02 -0.37835032143E+03  0.44289411387E+03  0.17200000000E+03 0. -1.
         -6    1    1    2    0  501 -0.15079679719E+03 -0.26125779016E+02 -0.80957539567E+03  0.84167603723E+03  0.17200000000E+03 0.  1.
</event>
<event>
 4    1  0.3196149E-002  0.2215567E+03  0.7818608E-02  0.1132728E+00
          1   -1    0    0  502    0  0.00000000000E+00  0.00000000000E+00  0.36755091285E+03  0.36755091285E+03  0.00000000000E+00 0. -1.
         -1   -1    0    0    0  501 -0.00000000000E+00 -0.00000000000E+00 -0.14523111258E+03  0.14523111258E+03  0.00000000000E+00 0.  1.
          6    1    1    2  502    0  0.11405513017E+03 -0.80590351181E+02  0.18386533303E+03  0.28791290022E+03  0.17200000000E+03 0. -1.
         -6    1    1    2    0  501 -0.11405513017E+03  0.80590351181E+02  0.38454467233E+02  0.22486912521E+03  0.17200000000E+03 0.  1.
</event>
<event>
 4    1  0.3196149E-002  0.2640968E+03  0.7818608E-02  0.1104706E+00
         -2   -1    0    0    0  501 -0.00000000000E+00  0.00000000000E+00  0.11971351365E+03  0.11971351365E+03  0.00000000000E+00 0.  1.
          2   -1    0    0  502    0  0.00000000000E+00 -0.00000000000E+00 -0.67186713260E+03  0.67186713260E+03  0.00000000000E+00 0. -1.
          6    1    1    2  502    0  0.76339767011E+02 -0.18529807803E+03 -0.42033075957E+03  0.49641221297E+03  0.17200000000E+03 0. -1.
         -6    1    1    2    0  501 -0.76339767011E+02  0.18529807803E+03 -0.13182285938E+03  0.29516843328E+03  0.17200000000E+03 0.  1.
</event>
<event>
 4    1  0.3196149E-002  0.5294254E+03  0.7818608E-02  0.1006372E+00
          2   -1    0    0  502    0  0.00000000000E+00  0.00000000000E+00  0.14288719660E+04  0.14288719660E+04  0.00000000000E+00 0. -1.
         -2   -1    0    0    0  501 -0.00000000000E+00 -0.00000000000E+00 -0.21257170524E+03  0.21257170524E+03  0.00000000000E+00 0.  1.
          6    1    1    2  502    0  0.49605423761E+03 -0.68098601917E+02  0.83617690108E+03  0.98968835303E+03  0.17200000000E+03 0. -1.
         -6    1    1    2    0  501 -0.49605423761E+03  0.68098601917E+02  0.38012335969E+03  0.65175531821E+03  0.17200000000E+03 0.  1.
</event>
<event>
 4    1  0.3196149E-002  0.2950936E+03  0.7818608E-02  0.1087719E+00
          1   -1    0    0  502    0  0.00000000000E+00  0.00000000000E+00  0.27057556844E+04  0.27057556844E+04  0.00000000000E+00 0. -1.
         -1   -1    0    0    0  501 -0.00000000000E+00 -0.00000000000E+00 -0.34441390281E+02  0.34441390281E+02  0.00000000000E+00 0.  1.
          6    1    1    2  502    0  0.17326337849E+03 -0.16575896903E+03  0.98484145081E+03  0.10281016085E+04  0.17200000000E+03 0. -1.
         -6    1    1    2    0  501 -0.17326337849E+03  0.16575896903E+03  0.16864728433E+04  0.17120954662E+04  0.17200000000E+03 0. -1.
</event>
<event>
 4    1  0.3196149E-002  0.2005294E+03  0.7818608E-02  0.1149293E+00
         -2   -1    0    0    0  501 -0.00000000000E+00  0.00000000000E+00  0.77223318735E+02  0.77223318735E+02  0.00000000000E+00 0.  1.
          2   -1    0    0  502    0  0.00000000000E+00 -0.00000000000E+00 -0.52377771147E+03  0.52377771147E+03  0.00000000000E+00 0. -1.
          6    1    1    2  502    0 -0.62744527970E+02  0.81799453310E+02 -0.20033187904E+03  0.28345173859E+03  0.17200000000E+03 0. -1.
         -6    1    1    2    0  501  0.62744527970E+02 -0.81799453310E+02 -0.24622251369E+03  0.31754929161E+03  0.17200000000E+03 0.  1.
</event>
<event>
 4    1  0.3196149E-002  0.2618431E+03  0.7818608E-02  0.1106041E+00
         -1   -1    0    0    0  501 -0.00000000000E+00  0.00000000000E+00  0.37995889148E+02  0.37995889148E+02  0.00000000000E+00 0.  1.
          1   -1    0    0  502    0  0.00000000000E+00 -0.00000000000E+00 -0.19626761301E+04  0.19626761301E+04  0.00000000000E+00 0. -1.
          6    1    1    2  502    0 -0.96717895424E+02 -0.17211465961E+03 -0.67831538491E+03  0.72709942151E+03  0.17200000000E+03 0. -1.
         -6    1    1    2    0  501  0.96717895424E+02  0.17211465961E+03 -0.12463648561E+04  0.12735725978E+04  0.17200000000E+03 0. -1.
</event>
<event>
 4    1  0.3196149E-002  0.1759988E+03  0.7818608E-02  0.1171733E+00
         -1   -1    0    0    0  501 -0.00000000000E+00  0.00000000000E+00  0.15632483466E+03  0.15632483466E+03  0.00000000000E+00 0.  1.
          1   -1    0    0  502    0  0.00000000000E+00 -0.00000000000E+00 -0.21088797383E+03  0.21088797383E+03  0.00000000000E+00 0. -1.
          6    1    1    2  502    0  0.33236670118E+02  0.16937703210E+02 -0.72408348461E+02  0.19031166795E+03  0.17200000000E+03 0. -1.
         -6    1    1    2    0  501 -0.33236670118E+02 -0.16937703210E+02  0.17845209293E+02  0.17690114054E+03  0.17200000000E+03 0.  1.
</event>
<event>
 4    1  0.3196149E-002  0.1917919E+03  0.7818608E-02  0.1156855E+00
          2   -1    0    0  502    0  0.00000000000E+00  0.00000000000E+00  0.13795599263E+04  0.13795599263E+04  0.00000000000E+00 0. -1.
         -2   -1    0    0    0  501 -0.00000000000E+00 -0.00000000000E+00 -0.28908474132E+02  0.28908474132E+02  0.00000000000E+00 0.  1.
          6    1    1    2  502    0  0.84410719685E+02 -0.86583591756E+01  0.87156834104E+03  0.89242115051E+03  0.17200000000E+03 0. -1.
         -6    1    1    2    0  501 -0.84410719685E+02  0.86583591756E+01  0.47908311115E+03  0.51604724994E+03  0.17200000000E+03 0. -1.
</event>
<event>
 4    1  0.3196149E-002  0.3208887E+03  0.7818608E-02  0.1075241E+00
         -2   -1    0    0    0  501 -0.00000000000E+00  0.00000000000E+00  0.10280261016E+03  0.10280261016E+03  0.00000000000E+00 0.  1.
          2   -1    0    0  502    0  0.00000000000E+00 -0.00000000000E+00 -0.10071796856E+04  0.10071796856E+04  0.00000000000E+00 0. -1.
          6    1    1    2  502    0  0.22842823798E+03  0.14562308225E+03 -0.49340862094E+03  0.58857591627E+03  0.17200000000E+03 0. -1.
         -6    1    1    2    0  501 -0.22842823798E+03 -0.14562308225E+03 -0.41096845454E+03  0.52140637953E+03  0.17200000000E+03 0. -1.
</event>
<event>
 4    1  0.3196149E-002  0.3134141E+03  0.7818608E-02  0.1078721E+00
          1   -1    0    0  502    0  0.00000000000E+00  0.00000000000E+00  0.30316393203E+03  0.30316393203E+03  0.00000000000E+00 0. -1.
         -1   -1    0    0    0  501 -0.00000000000E+00 -0.00000000000E+00 -0.11581767895E+04  0.11581767895E+04  0.00000000000E+00 0.  1.
          6    1    1    2  502    0 -0.21263669680E+03 -0.15306865278E+03  0.19259154319E+03  0.36785850513E+03  0.17200000000E+03 0. -1.
         -6    1    1    2    0  501  0.21263669680E+03  0.15306865278E+03 -0.10476044006E+04  0.10934822164E+04  0.17200000000E+03 0.  1.
</event>
<event>
 4    1  0.3196149E-002  0.2403466E+03  0.7818608E-02  0.1119562E+00
         -2   -1    0    0    0  501 -0.00000000000E+00  0.00000000000E+00  0.17511908316E+03  0.17511908316E+03  0.00000000000E+00 0.  1.
          2   -1    0    0  502    0  0.00000000000E+00 -0.00000000000E+00 -0.36280406443E+03  0.36280406443E+03  0.00000000000E+00 0. -1.
          6    1    1    2  502    0  0.10206951740E+03  0.13328271666E+03 -0.12806265280E+02  0.24068749318E+03  0.17200000000E+03 0. -1.
         -6    1    1    2    0  501 -0.10206951740E+03 -0.13328271666E+03 -0.17487871599E+03  0.29723565440E+03  0.17200000000E+03 0.  1.
</event>
<event>
 4    1  0.3196149E-002  0.3229997E+03  0.7818608E-02  0.1074277E+00
         -2   -1    0    0    0  501 -0.00000000000E+00  0.00000000000E+00  0.20385386236E+03  0.20385386236E+03  0.00000000000E+00 0.  1.
          2   -1    0    0  502    0  0.00000000000E+00 -0.00000000000E+00 -0.61499200631E+03  0.61499200631E+03  0.00000000000E+00 0. -1.
          6    1    1    2  502    0  0.21488279349E+03  0.16902715758E+03 -0.37329404838E+03  0.49363675055E+03  0.17200000000E+03 0. -1.
         -6    1    1    2    0  501 -0.21488279349E+03 -0.16902715758E+03 -0.37844095561E+02  0.32520911812E+03  0.17200000000E+03 0.  1.
</event>
<event>
 4    1  0.3196149E-002  0.1775023E+03  0.7818608E-02  0.1170242E+00
          1   -1    0    0  502    0  0.00000000000E+00  0.00000000000E+00  0.25124300513E+04  0.25124300513E+04  0.00000000000E+00 0. -1.
         -1   -1    0    0    0  501 -0.00000000000E+00 -0.00000000000E+00 -0.14048667055E+02  0.14048667055E+02  0.00000000000E+00 0.  1.
          6    1    1    2  502    0 -0.25720490960E+02  0.35517726660E+02  0.16630923797E+04  0.16725379864E+04  0.17200000000E+03 0. -1.
         -6    1    1    2    0  501  0.25720490960E+02 -0.35517726660E+02  0.83528900453E+03  0.85394073193E+03  0.17200000000E+03 0.  1.
</event>
<event>
 4    1  0.3196149E-002  0.3676234E+03  0.7818608E-02  0.1055605E+00
          2   -1    0    0  502    0  0.00000000000E+00  0.00000000000E+00  0.18015048867E+04  0.18015048867E+04  0.00000000000E+00 0. -1.
         -2   -1    0    0    0  501 -0.00000000000E+00 -0.00000000000E+00 -0.90154268050E+02  0.90154268050E+02  0.00000000000E+00 0.  1.
          6    1    1    2  502    0  0.79848710559E+01  0.32480636352E+03  0.12432149237E+04  0.12964298201E+04  0.17200000000E+03 0. -1.
         -6    1    1    2    0  501 -0.79848710559E+01 -0.32480636352E+03  0.46813569500E+03  0.59522933469E+03  0.17200000000E+03 0.  1.
</event>
<event>
 4    1  0.3196149E-002  0.1758188E+03  0.7818608E-02  0.1171912E+00
         -2   -1    0    0    0  501 -0.00000000000E+00  0.00000000000E+00  0.22035179468E+03  0.22035179468E+03  0.00000000000E+00 0.  1.
          2   -1    0    0  502    0  0.00000000000E+00 -0.00000000000E+00 -0.15336733005E+03  0.15336733005E+03  0.00000000000E+00 0. -1.
          6    1    1    2  502    0 -0.24393990311E+02  0.27077540336E+02 -0.21080506255E+02  0.17707808362E+03  0.17200000000E+03 0. -1.
         -6    1    1    2    0  501  0.24393990311E+02 -0.27077540336E+02  0.88064970882E+02  0.19664104111E+03  0.17200000000E+03 0.  1.
</event>
<event>
 4    1  0.3196149E-002  0.2073252E+03  0.7818608E-02  0.1143702E+00
         -3   -1    0    0    0  501 -0.00000000000E+00  0.00000000000E+00  0.27073241595E+03  0.27073241595E+03  0.00000000000E+00 0.  1.
          3   -1    0    0  502    0  0.00000000000E+00 -0.00000000000E+00 -0.30547047979E+03  0.30547047979E+03  0.00000000000E+00 0. -1.
          6    1    1    2  502    0 -0.10241385584E+02  0.11530339481E+03  0.18228538304E+03  0.27606470202E+03  0.17200000000E+03 0.  1.
         -6    1    1    2    0  501  0.10241385584E+02 -0.11530339481E+03 -0.21702344688E+03  0.30013819372E+03  0.17200000000E+03 0.  1.
</event>
<event>
 4    1  0.3196149E-002  0.3767040E+03  0.7818608E-02  0.1052159E+00
         -1   -1    0    0    0  501 -0.00000000000E+00  0.00000000000E+00  0.80970284092E+03  0.80970284092E+03  0.00000000000E+00 0.  1.
          1   -1    0    0  502    0  0.00000000000E+00 -0.00000000000E+00 -0.20626400054E+03  0.20626400054E+03  0.00000000000E+00 0. -1.
          6    1    1    2  502    0 -0.26072963358E+03  0.21057526935E+03  0.10476330456E+03  0.39100030163E+03  0.17200000000E+03 0. -1.
         -6    1    1    2    0  501  0.26072963358E+03 -0.21057526935E+03  0.49867553582E+03  0.62496653983E+03  0.17200000000E+03 0.  1.
</event>
<event>
 4    1  0.3196149E-002  0.2430479E+03  0.7818608E-02  0.1117779E+00
         -1   -1    0    0    0  501 -0.00000000000E+00  0.00000000000E+00  0.56170364938E+02  0.56170364938E+02  0.00000000000E+00 0.  1.
          1   -1    0    0  502    0  0.00000000000E+00 -0.00000000000E+00 -0.15605041412E+04  0.15605041412E+04  0.00000000000E+00 0. -1.
          6    1    1    2  502    0  0.12356186485E+03  0.11925072234E+03 -0.12137516173E+04  0.12378470252E+04  0.17200000000E+03 0. -1.
         -6    1    1    2    0  501 -0.12356186485E+03 -0.11925072234E+03 -0.29058215893E+03  0.37882748094E+03  0.17200000000E+03 0.  1.
</event>
<event>
 4    1  0.3196149E-002  0.6826972E+03  0.7818608E-02  0.9747289E-01
          1   -1    0    0  502    0  0.00000000000E+00  0.00000000000E+00  0.68318591040E+03  0.68318591040E+03  0.00000000000E+00 0. -1.
         -1   -1    0    0    0  501 -0.00000000000E+00 -0.00000000000E+00 -0.98853153741E+03  0.98853153741E+03  0.00000000000E+00 0.  1.
          6    1    1    2  502    0  0.64206327756E+03  0.15571191567E+03  0.31262093617E+03  0.75087102941E+03  0.17200000000E+03 0. -1.
         -6    1    1    2    0  501 -0.64206327756E+03 -0.15571191567E+03 -0.61796656318E+03  0.92084641840E+03  0.17200000000E+03 0.  1.
</event>
<event>
 4    1  0.3196149E-002  0.1788801E+03  0.7818608E-02  0.1168891E+00
         -2   -1    0    0    0  501 -0.00000000000E+00  0.00000000000E+00  0.14131686759E+04  0.14131686759E+04  0.00000000000E+00 0.  1.
          2   -1    0    0  502    0  0.00000000000E+00 -0.00000000000E+00 -0.31398606366E+02  0.31398606366E+02  0.00000000000E+00 0. -1.
          6    1    1    2  502    0 -0.48722377796E+02 -0.63406975732E+01  0.30946716339E+03  0.35744649916E+03  0.17200000000E+03 0. -1.
         -6    1    1    2    0  501  0.48722377796E+02  0.63406975732E+01  0.10723029062E+04  0.10871207831E+04  0.17200000000E+03 0.  1.
</event>
<event>
 4    1  0.3196149E-002  0.4948602E+03  0.7818608E-02  0.1015129E+00
         -2   -1    0    0    0  501 -0.00000000000E+00  0.00000000000E+00  0.18143632439E+03  0.18143632439E+03  0.00000000000E+00 0.  1.
          2   -1    0    0  502    0  0.00000000000E+00 -0.00000000000E+00 -0.14107403830E+04  0.14107403830E+04  0.00000000000E+00 0. -1.
          6    1    1    2  502    0  0.21951206527E+03 -0.40879955746E+03 -0.78023160922E+03  0.92393072738E+03  0.17200000000E+03 0. -1.
         -6    1    1    2    0  501 -0.21951206527E+03  0.40879955746E+03 -0.44907244936E+03  0.66824597998E+03  0.17200000000E+03 0.  1.
</event>
<event>
 4    1  0.3196149E-002  0.2099650E+03  0.7818608E-02  0.1141594E+00
          1   -1    0    0  502    0  0.00000000000E+00  0.00000000000E+00  0.12080223787E+03  0.12080223787E+03  0.00000000000E+00 0. -1.
         -1   -1    0    0    0  501 -0.00000000000E+00 -0.00000000000E+00 -0.40938144387E+03  0.40938144387E+03  0.00000000000E+00 0.  1.
          6    1    1    2  502    0 -0.11391057987E+03 -0.39059893139E+02 -0.23163447559E+03  0.31263369259E+03  0.17200000000E+03 0. -1.
         -6    1    1    2    0  501  0.11391057987E+03  0.39059893139E+02 -0.56944730409E+02  0.21754998915E+03  0.17200000000E+03 0.  1.
</event>
<event>
 4    1  0.3196149E-002  0.2458829E+03  0.7818608E-02  0.1115935E+00
         -1   -1    0    0    0  501 -0.00000000000E+00  0.00000000000E+00  0.17097526330E+03  0.17097526330E+03  0.00000000000E+00 0.  1.
          1   -1    0    0  502    0  0.00000000000E+00 -0.00000000000E+00 -0.40781021845E+03  0.40781021845E+03  0.00000000000E+00 0. -1.
          6    1    1    2  502    0  0.11605562502E+03 -0.13192978384E+03 -0.22392015447E+03  0.33256369547E+03  0.17200000000E+03 0. -1.
         -6    1    1    2    0  501 -0.11605562502E+03  0.13192978384E+03 -0.12914800678E+02  0.24622178628E+03  0.17200000000E+03 0.  1.
</event>
<event>
 4    1  0.3196149E-002  0.2423845E+03  0.7818608E-02  0.1118214E+00
         -1   -1    0    0    0  501 -0.00000000000E+00  0.00000000000E+00  0.28037375567E+03  0.28037375567E+03  0.00000000000E+00 0.  1.
          1   -1    0    0  502    0  0.00000000000E+00 -0.00000000000E+00 -0.21190196337E+03  0.21190196337E+03  0.00000000000E+00 0. -1.
          6    1    1    2  502    0  0.16600995365E+03  0.40086487859E+02  0.60208357571E+02  0.24975043051E+03  0.17200000000E+03 0. -1.
         -6    1    1    2    0  501 -0.16600995365E+03 -0.40086487859E+02  0.82634347274E+01  0.24252528852E+03  0.17200000000E+03 0.  1.
</event>
<event>
 4    1  0.3196149E-002  0.6643093E+03  0.7818608E-02  0.9780293E-01
         -2   -1    0    0    0  501 -0.00000000000E+00  0.00000000000E+00  0.20651586623E+03  0.20651586623E+03  0.00000000000E+00 0.  1.
          2   -1    0    0  502    0  0.00000000000E+00 -0.00000000000E+00 -0.23170297481E+04  0.23170297481E+04  0.00000000000E+00 0. -1.
          6    1    1    2  502    0  0.62549648616E+03  0.14309780715E+03 -0.70346159648E+03  0.96755622799E+03  0.17200000000E+03 0. -1.
         -6    1    1    2    0  501 -0.62549648616E+03 -0.14309780715E+03 -0.14070522854E+04  0.15559893864E+04  0.17200000000E+03 0.  1.
</event>
<event>
 4    1  0.3196149E-002  0.1925116E+03  0.7818608E-02  0.1156215E+00
          1   -1    0    0  502    0  0.00000000000E+00  0.00000000000E+00  0.19316707523E+04  0.19316707523E+04  0.00000000000E+00 0. -1.
         -1   -1    0    0    0  501 -0.00000000000E+00 -0.00000000000E+00 -0.27058766591E+02  0.27058766591E+02  0.00000000000E+00 0.  1.
          6    1    1    2  502    0  0.61276728148E+02  0.61007276804E+02  0.14805792018E+04  0.14930423631E+04  0.17200000000E+03 0. -1.
         -6    1    1    2    0  501 -0.61276728148E+02 -0.61007276804E+02  0.42403278397E+03  0.46568715584E+03  0.17200000000E+03 0.  1.
</event>
<event>
 4    1  0.3196149E-002  0.2887867E+03  0.7818608E-02  0.1090984E+00
         -2   -1    0    0    0  501 -0.00000000000E+00  0.00000000000E+00  0.47450151819E+03  0.47450151819E+03  0.00000000000E+00 0.  1.
          2   -1    0    0  502    0  0.00000000000E+00 -0.00000000000E+00 -0.24785315470E+03  0.24785315470E+03  0.00000000000E+00 0. -1.
          6    1    1    2  502    0 -0.15867677827E+03 -0.16922007765E+03 -0.81469243125E+02  0.30005831469E+03  0.17200000000E+03 0. -1.
         -6    1    1    2    0  501  0.15867677827E+03  0.16922007765E+03  0.30811760662E+03  0.42229635820E+03  0.17200000000E+03 0.  1.
</event>
<event>
 4    1  0.3196149E-002  0.1754524E+03  0.7818608E-02  0.1172278E+00
         -2   -1    0    0    0  501 -0.00000000000E+00  0.00000000000E+00  0.48894895591E+02  0.48894895591E+02  0.00000000000E+00 0.  1.
          2   -1    0    0  502    0  0.00000000000E+00 -0.00000000000E+00 -0.10873367927E+04  0.10873367927E+04  0.00000000000E+00 0. -1.
          6    1    1    2  502    0  0.31189693724E+02 -0.15057733873E+02 -0.15060891980E+03  0.23122841319E+03  0.17200000000E+03 0.  1.
         -6    1    1    2    0  501 -0.31189693724E+02  0.15057733873E+02 -0.88783297730E+03  0.90500327509E+03  0.17200000000E+03 0. -1.
</event>
<event>
 4    1  0.3196149E-002  0.1982774E+03  0.7818608E-02  0.1151201E+00
         -3   -1    0    0    0  501 -0.00000000000E+00  0.00000000000E+00  0.14737644743E+03  0.14737644743E+03  0.00000000000E+00 0.  1.
          3   -1    0    0  502    0  0.00000000000E+00 -0.00000000000E+00 -0.49711130083E+03  0.49711130083E+03  0.00000000000E+00 0. -1.
          6    1    1    2  502    0  0.36116318746E+02 -0.91790635387E+02 -0.39422602885E+03  0.44128003699E+03  0.17200000000E+03 0. -1.
         -6    1    1    2    0  501 -0.36116318746E+02  0.91790635387E+02  0.44491175458E+02  0.20320771127E+03  0.17200000000E+03 0.  1.
</event>
<event>
 4    1  0.3196149E-002  0.2183463E+03  0.7818608E-02  0.1135122E+00
         -3   -1    0    0    0  501 -0.00000000000E+00  0.00000000000E+00  0.13134981979E+03  0.13134981979E+03  0.00000000000E+00 0.  1.
          3   -1    0    0  502    0  0.00000000000E+00 -0.00000000000E+00 -0.38684198271E+03  0.38684198271E+03  0.00000000000E+00 0. -1.
          6    1    1    2  502    0  0.67561764211E+02  0.11630345469E+03 -0.19211917185E+03  0.29083476709E+03  0.17200000000E+03 0.  1.
         -6    1    1    2    0  501 -0.67561764211E+02 -0.11630345469E+03 -0.63372991065E+02  0.22735703541E+03  0.17200000000E+03 0.  1.
</event>
<event>
 4    1  0.3196149E-002  0.2164799E+03  0.7818608E-02  0.1136535E+00
         -1   -1    0    0    0  501 -0.00000000000E+00  0.00000000000E+00  0.63205050897E+02  0.63205050897E+02  0.00000000000E+00 0.  1.
          1   -1    0    0  502    0  0.00000000000E+00 -0.00000000000E+00 -0.95946878091E+03  0.95946878091E+03  0.00000000000E+00 0. -1.
          6    1    1    2  502    0  0.87263880303E+02  0.98308524727E+02 -0.20438666983E+03  0.29772044210E+03  0.17200000000E+03 0.  1.
         -6    1    1    2    0  501 -0.87263880303E+02 -0.98308524727E+02 -0.69187706018E+03  0.72495338971E+03  0.17200000000E+03 0. -1.
</event>
<event>
 4    1  0.3196149E-002  0.3872237E+03  0.7818608E-02  0.1048296E+00
         -1   -1    0    0    0  501 -0.00000000000E+00  0.00000000000E+00  0.90348711061E+03  0.90348711061E+03  0.00000000000E+00 0.  1.
          1   -1    0    0  502    0  0.00000000000E+00 -0.00000000000E+00 -0.22121051535E+03  0.22121051535E+03  0.00000000000E+00 0. -1.
          6    1    1    2  502    0  0.28244406045E+03  0.20145364008E+03  0.62218161311E+03  0.73283843791E+03  0.17200000000E+03 0.  1.
         -6    1    1    2    0  501 -0.28244406045E+03 -0.20145364008E+03  0.60094982149E+02  0.39185918805E+03  0.17200000000E+03 0. -1.
</event>
<event>
 4    1  0.3196149E-002  0.3401914E+03  0.7818608E-02  0.1066714E+00
          4   -1    0    0  502    0  0.00000000000E+00  0.00000000000E+00  0.14157468063E+03  0.14157468063E+03  0.00000000000E+00 0. -1.
         -4   -1    0    0    0  501 -0.00000000000E+00 -0.00000000000E+00 -0.86252231078E+03  0.86252231078E+03  0.00000000000E+00 0.  1.
          6    1    1    2  502    0 -0.26067463538E+03 -0.13488846135E+03 -0.47524092885E+03  0.58445196808E+03  0.17200000000E+03 0.  1.
         -6    1    1    2    0  501  0.26067463538E+03  0.13488846135E+03 -0.24570670130E+03  0.41964502332E+03  0.17200000000E+03 0.  1.
</event>
<event>
 4    1  0.3196149E-002  0.2820610E+03  0.7818608E-02  0.1094569E+00
         -2   -1    0    0    0  501 -0.00000000000E+00  0.00000000000E+00  0.18159802344E+03  0.18159802344E+03  0.00000000000E+00 0.  1.
          2   -1    0    0  502    0  0.00000000000E+00 -0.00000000000E+00 -0.74654112905E+03  0.74654112905E+03  0.00000000000E+00 0. -1.
          6    1    1    2  502    0  0.86057166590E+02 -0.20632146115E+03  0.15820207285E+02  0.28250426583E+03  0.17200000000E+03 0.  1.
         -6    1    1    2    0  501 -0.86057166590E+02  0.20632146115E+03 -0.58076331289E+03  0.64563488665E+03  0.17200000000E+03 0. -1.
</event>
<event>
 4    1  0.3196149E-002  0.2846567E+03  0.7818608E-02  0.1093172E+00
         -2   -1    0    0    0  501 -0.00000000000E+00  0.00000000000E+00  0.42412304930E+02  0.42412304930E+02  0.00000000000E+00 0.  1.
          2   -1    0    0  502    0  0.00000000000E+00 -0.00000000000E+00 -0.19836302331E+04  0.19836302331E+04  0.00000000000E+00 0. -1.
          6    1    1    2  502    0 -0.13591553979E+03  0.18158311064E+03 -0.11650930485E+04  0.11993628608E+04  0.17200000000E+03 0. -1.
         -6    1    1    2    0  501  0.13591553979E+03 -0.18158311064E+03 -0.77612487965E+03  0.82667967728E+03  0.17200000000E+03 0.  1.
</event>
<event>
 4    1  0.3196149E-002  0.1720592E+03  0.7818608E-02  0.1175717E+00
         -1   -1    0    0    0  501 -0.00000000000E+00  0.00000000000E+00  0.14139026972E+03  0.14139026972E+03  0.00000000000E+00 0.  1.
          1   -1    0    0  502    0  0.00000000000E+00 -0.00000000000E+00 -0.21749294211E+03  0.21749294211E+03  0.00000000000E+00 0. -1.
          6    1    1    2  502    0 -0.32573434367E+01  0.31263251623E+01 -0.72706886884E+02  0.18679045906E+03  0.17200000000E+03 0. -1.
         -6    1    1    2    0  501  0.32573434367E+01 -0.31263251623E+01 -0.33957855045E+01  0.17209275277E+03  0.17200000000E+03 0.  1.
</event>
<event>
 4    1  0.3196149E-002  0.2483922E+03  0.7818608E-02  0.1114325E+00
         -2   -1    0    0    0  501 -0.00000000000E+00  0.00000000000E+00  0.12611619572E+03  0.12611619572E+03  0.00000000000E+00 0.  1.
          2   -1    0    0  502    0  0.00000000000E+00 -0.00000000000E+00 -0.53291691898E+03  0.53291691898E+03  0.00000000000E+00 0. -1.
          6    1    1    2  502    0  0.17150078865E+02  0.17838317414E+03 -0.10904462812E+03  0.27127368642E+03  0.17200000000E+03 0. -1.
         -6    1    1    2    0  501 -0.17150078865E+02 -0.17838317414E+03 -0.29775609514E+03  0.38775942827E+03  0.17200000000E+03 0. -1.
</event>
<event>
 4    1  0.3196149E-002  0.3767424E+03  0.7818608E-02  0.1052144E+00
         -1   -1    0    0    0  501 -0.00000000000E+00  0.00000000000E+00  0.28802406440E+03  0.28802406440E+03  0.00000000000E+00 0.  1.
          1   -1    0    0  502    0  0.00000000000E+00 -0.00000000000E+00 -0.59361738099E+03  0.59361738099E+03  0.00000000000E+00 0. -1.
          6    1    1    2  502    0 -0.72241262968E+02 -0.32731034938E+03 -0.33447442519E+03  0.50379361448E+03  0.17200000000E+03 0. -1.
         -6    1    1    2    0  501  0.72241262968E+02  0.32731034938E+03  0.28881108609E+02  0.37784783091E+03  0.17200000000E+03 0.  1.
</event>
<event>
 4    1  0.3196149E-002  0.1778451E+03  0.7818608E-02  0.1169905E+00
          2   -1    0    0  502    0  0.00000000000E+00  0.00000000000E+00  0.56110534584E+03  0.56110534584E+03  0.00000000000E+00 0. -1.
         -2   -1    0    0    0  501 -0.00000000000E+00 -0.00000000000E+00 -0.56421493385E+02  0.56421493385E+02  0.00000000000E+00 0.  1.
          6    1    1    2  502    0  0.41916425645E+02 -0.16967123211E+02  0.26177220360E+03  0.31647046716E+03  0.17200000000E+03 0.  1.
         -6    1    1    2    0  501 -0.41916425645E+02  0.16967123211E+02  0.24291164885E+03  0.30105637206E+03  0.17200000000E+03 0. -1.
</event>
<event>
 4    1  0.3196149E-002  0.3011473E+03  0.7818608E-02  0.1084668E+00
          1   -1    0    0  502    0  0.00000000000E+00  0.00000000000E+00  0.18010938014E+03  0.18010938014E+03  0.00000000000E+00 0. -1.
         -1   -1    0    0    0  501 -0.00000000000E+00 -0.00000000000E+00 -0.51735617741E+03  0.51735617741E+03  0.00000000000E+00 0.  1.
          6    1    1    2  502    0  0.95691113660E+02  0.22792304684E+03 -0.11160483241E+03  0.32116248712E+03  0.17200000000E+03 0. -1.
         -6    1    1    2    0  501 -0.95691113660E+02 -0.22792304684E+03 -0.22564196487E+03  0.37630307044E+03  0.17200000000E+03 0.  1.
</event>
<event>
 4    1  0.3196149E-002  0.2433378E+03  0.7818608E-02  0.1117589E+00
          1   -1    0    0  502    0  0.00000000000E+00  0.00000000000E+00  0.48333340465E+03  0.48333340465E+03  0.00000000000E+00 0. -1.
         -1   -1    0    0    0  501 -0.00000000000E+00 -0.00000000000E+00 -0.23350579717E+03  0.23350579717E+03  0.00000000000E+00 0.  1.
          6    1    1    2  502    0 -0.16917339004E+03 -0.31774807330E+02  0.37202691317E+03  0.44454167229E+03  0.17200000000E+03 0. -1.
         -6    1    1    2    0  501  0.16917339004E+03  0.31774807330E+02 -0.12219930569E+03  0.27229752953E+03  0.17200000000E+03 0.  1.
</event>
<event>
 4    1  0.3196149E-002  0.5431791E+03  0.7818608E-02  0.1003085E+00
          2   -1    0    0  502    0  0.00000000000E+00  0.00000000000E+00  0.28297291995E+03  0.28297291995E+03  0.00000000000E+00 0. -1.
         -2   -1    0    0    0  501 -0.00000000000E+00 -0.00000000000E+00 -0.25523352065E+04  0.25523352065E+04  0.00000000000E+00 0.  1.
          6    1    1    2  502    0  0.32831380340E+03 -0.39707623783E+03 -0.44386928235E+02  0.54498962518E+03  0.17200000000E+03 0. -1.
         -6    1    1    2    0  501 -0.32831380340E+03  0.39707623783E+03 -0.22249753584E+04  0.22903185013E+04  0.17200000000E+03 0.  1.
</event>
<event>
 4    1  0.3196149E-002  0.3607786E+03  0.7818608E-02  0.1058276E+00
          2   -1    0    0  502    0  0.00000000000E+00  0.00000000000E+00  0.19036989477E+04  0.19036989477E+04  0.00000000000E+00 0. -1.
         -2   -1    0    0    0  501 -0.00000000000E+00 -0.00000000000E+00 -0.74739578709E+02  0.74739578709E+02  0.00000000000E+00 0.  1.
          6    1    1    2  502    0  0.30432648195E+03 -0.89233304418E+02  0.12032002940E+04  0.12561258447E+04  0.17200000000E+03 0. -1.
         -6    1    1    2    0  501 -0.30432648195E+03  0.89233304418E+02  0.62575907504E+03  0.72231268176E+03  0.17200000000E+03 0.  1.
</event>
<event>
 4    1  0.3196149E-002  0.2345169E+03  0.7818608E-02  0.1123500E+00
          2   -1    0    0  502    0  0.00000000000E+00  0.00000000000E+00  0.78642541346E+03  0.78642541346E+03  0.00000000000E+00 0. -1.
         -2   -1    0    0    0  501 -0.00000000000E+00 -0.00000000000E+00 -0.22062325362E+03  0.22062325362E+03  0.00000000000E+00 0.  1.
          6    1    1    2  502    0 -0.30403686965E+02  0.15649214170E+03  0.69903719889E+03  0.73732705092E+03  0.17200000000E+03 0. -1.
         -6    1    1    2    0  501  0.30403686965E+02 -0.15649214170E+03 -0.13323503905E+03  0.26972161616E+03  0.17200000000E+03 0.  1.
</event>
<event>
 4    1  0.3196149E-002  0.1859829E+03  0.7818608E-02  0.1162135E+00
          1   -1    0    0  502    0  0.00000000000E+00  0.00000000000E+00  0.36379688221E+03  0.36379688221E+03  0.00000000000E+00 0. -1.
         -1   -1    0    0    0  501 -0.00000000000E+00 -0.00000000000E+00 -0.13360510107E+03  0.13360510107E+03  0.00000000000E+00 0.  1.
          6    1    1    2  502    0  0.24214260243E+02  0.66477843660E+02 -0.18453090207E+02  0.18689609583E+03  0.17200000000E+03 0.  1.
         -6    1    1    2    0  501 -0.24214260243E+02 -0.66477843660E+02  0.24864487135E+03  0.31050588746E+03  0.17200000000E+03 0. -1.
</event>
<event>
 4    1  0.3196149E-002  0.1452335E+04  0.7818608E-02  0.8916783E-01
         -2   -1    0    0    0  501 -0.00000000000E+00  0.00000000000E+00  0.91448338617E+03  0.91448338617E+03  0.00000000000E+00 0.  1.
          2   -1    0    0  502    0  0.00000000000E+00 -0.00000000000E+00 -0.27005385283E+04  0.27005385283E+04  0.00000000000E+00 0. -1.
          6    1    1    2  502    0  0.14230361251E+04 -0.23379943144E+03 -0.15834450879E+04  0.21486219616E+04  0.17200000000E+03 0. -1.
         -6    1    1    2    0  501 -0.14230361251E+04  0.23379943144E+03 -0.20261005417E+03  0.14663999528E+04  0.17200000000E+03 0.  1.
</event>
<event>
 4    1  0.3196149E-002  0.2861488E+03  0.7818608E-02  0.1092377E+00
          1   -1    0    0  502    0  0.00000000000E+00  0.00000000000E+00  0.27775243291E+03  0.27775243291E+03  0.00000000000E+00 0. -1.
         -1   -1    0    0    0  501 -0.00000000000E+00 -0.00000000000E+00 -0.70113970475E+03  0.70113970475E+03  0.00000000000E+00 0.  1.
          6    1    1    2  502    0  0.11032592470E+03  0.20031302139E+03  0.16091058769E+03  0.32828849116E+03  0.17200000000E+03 0. -1.
         -6    1    1    2    0  501 -0.11032592470E+03 -0.20031302139E+03 -0.58429785953E+03  0.65060364651E+03  0.17200000000E+03 0.  1.
</event>
<event>
 4    1  0.3196149E-002  0.1971794E+03  0.7818608E-02  0.1152141E+00
         -2   -1    0    0    0  501 -0.00000000000E+00  0.00000000000E+00  0.83032343182E+02  0.83032343182E+02  0.00000000000E+00 0.  1.
          2   -1    0    0  502    0  0.00000000000E+00 -0.00000000000E+00 -0.49414162532E+03  0.49414162532E+03  0.00000000000E+00 0. -1.
          6    1    1    2  502    0  0.59972894955E+02  0.75491384448E+02 -0.27161647390E+03  0.33564148454E+03  0.17200000000E+03 0. -1.
         -6    1    1    2    0  501 -0.59972894955E+02 -0.75491384448E+02 -0.13949280824E+03  0.24153248396E+03  0.17200000000E+03 0.  1.
</event>
<event>
 4    1  0.3196149E-002  0.2630397E+03  0.7818608E-02  0.1105331E+00
          2   -1    0    0  502    0  0.00000000000E+00  0.00000000000E+00  0.28162696356E+03  0.28162696356E+03  0.00000000000E+00 0. -1.
         -2   -1    0    0    0  501 -0.00000000000E+00 -0.00000000000E+00 -0.29118526650E+03  0.29118526650E+03  0.00000000000E+00 0.  1.
          6    1    1    2  502    0  0.17644644895E+03 -0.92046414615E+02  0.10844319657E+03  0.28451681615E+03  0.17200000000E+03 0. -1.
         -6    1    1    2    0  501 -0.17644644895E+03  0.92046414615E+02 -0.11800149951E+03  0.28829541390E+03  0.17200000000E+03 0.  1.
</event>
<event>
 4    1  0.3196149E-002  0.1781646E+03  0.7818608E-02  0.1169591E+00
          1   -1    0    0  502    0  0.00000000000E+00  0.00000000000E+00  0.11094358166E+04  0.11094358166E+04  0.00000000000E+00 0. -1.
         -1   -1    0    0    0  501 -0.00000000000E+00 -0.00000000000E+00 -0.16000128989E+03  0.16000128989E+03  0.00000000000E+00 0.  1.
          6    1    1    2  502    0 -0.13498661747E+02 -0.44456647118E+02  0.10498926372E+04  0.10649024167E+04  0.17200000000E+03 0. -1.
         -6    1    1    2    0  501  0.13498661747E+02  0.44456647118E+02 -0.10045811056E+03  0.20453468977E+03  0.17200000000E+03 0.  1.
</event>
<event>
 4    1  0.3196149E-002  0.2840270E+03  0.7818608E-02  0.1093510E+00
         -2   -1    0    0    0  501 -0.00000000000E+00  0.00000000000E+00  0.26552390408E+03  0.26552390408E+03  0.00000000000E+00 0.  1.
          2   -1    0    0  502    0  0.00000000000E+00 -0.00000000000E+00 -0.56999727444E+03  0.56999727444E+03  0.00000000000E+00 0. -1.
          6    1    1    2  502    0  0.21330371971E+03 -0.74758597281E+02 -0.43771755979E+03  0.52179304984E+03  0.17200000000E+03 0. -1.
         -6    1    1    2    0  501 -0.21330371971E+03  0.74758597281E+02  0.13324418942E+03  0.31372812868E+03  0.17200000000E+03 0.  1.
</event>
<event>
 4    1  0.3196149E-002  0.4597033E+03  0.7818608E-02  0.1024867E+00
          2   -1    0    0  502    0  0.00000000000E+00  0.00000000000E+00  0.20525462310E+04  0.20525462310E+04  0.00000000000E+00 0. -1.
         -2   -1    0    0    0  501 -0.00000000000E+00 -0.00000000000E+00 -0.12861276478E+03  0.12861276478E+03  0.00000000000E+00 0.  1.
          6    1    1    2  502    0 -0.33801363136E+03 -0.25978824461E+03  0.14490405749E+04  0.15202123979E+04  0.17200000000E+03 0. -1.
         -6    1    1    2    0  501  0.33801363136E+03  0.25978824461E+03  0.47489289129E+03  0.66094659786E+03  0.17200000000E+03 0.  1.
</event>
<event>
 4    1  0.3196149E-002  0.1912584E+03  0.7818608E-02  0.1157331E+00
         -1   -1    0    0    0  501 -0.00000000000E+00  0.00000000000E+00  0.14056924791E+03  0.14056924791E+03  0.00000000000E+00 0.  1.
          1   -1    0    0  502    0  0.00000000000E+00 -0.00000000000E+00 -0.31994305630E+03  0.31994305630E+03  0.00000000000E+00 0. -1.
          6    1    1    2  502    0 -0.74942119886E+02 -0.37141155316E+02 -0.18916414733E+03  0.26900345980E+03  0.17200000000E+03 0. -1.
         -6    1    1    2    0  501  0.74942119886E+02  0.37141155316E+02  0.97903389298E+01  0.19150884441E+03  0.17200000000E+03 0.  1.
</event>
<event>
 4    1  0.3196149E-002  0.1834377E+03  0.7818608E-02  0.1164517E+00
         -2   -1    0    0    0  501 -0.00000000000E+00  0.00000000000E+00  0.25973660081E+02  0.25973660081E+02  0.00000000000E+00 0.  1.
          2   -1    0    0  502    0  0.00000000000E+00 -0.00000000000E+00 -0.13793584283E+04  0.13793584283E+04  0.00000000000E+00 0. -1.
          6    1    1    2  502    0 -0.43933758616E+02 -0.46208303547E+02 -0.84992646074E+03  0.86949661939E+03  0.17200000000E+03 0. -1.
         -6    1    1    2    0  501  0.43933758616E+02  0.46208303547E+02 -0.50345830753E+03  0.53583546904E+03  0.17200000000E+03 0.  1.
</event>
<event>
 4    1  0.3196149E-002  0.1955683E+03  0.7818608E-02  0.1153533E+00
         -2   -1    0    0    0  501 -0.00000000000E+00  0.00000000000E+00  0.93355785143E+02  0.93355785143E+02  0.00000000000E+00 0.  1.
          2   -1    0    0  502    0  0.00000000000E+00 -0.00000000000E+00 -0.41430815436E+03  0.41430815436E+03  0.00000000000E+00 0. -1.
          6    1    1    2  502    0  0.70463535155E+02 -0.60809942185E+02 -0.18727435111E+03  0.27077415209E+03  0.17200000000E+03 0. -1.
         -6    1    1    2    0  501 -0.70463535155E+02  0.60809942185E+02 -0.13367801810E+03  0.23688978741E+03  0.17200000000E+03 0.  1.
</event>
<event>
 4    1  0.3196149E-002  0.1745641E+03  0.7818608E-02  0.1173170E+00
          1   -1    0    0  502    0  0.00000000000E+00  0.00000000000E+00  0.11247747254E+04  0.11247747254E+04  0.00000000000E+00 0. -1.
         -1   -1    0    0    0  501 -0.00000000000E+00 -0.00000000000E+00 -0.27117230320E+02  0.27117230320E+02  0.00000000000E+00 0.  1.
          6    1    1    2  502    0 -0.12322704133E+02  0.27143851311E+02  0.53133552850E+03  0.55927639102E+03  0.17200000000E+03 0.  1.
         -6    1    1    2    0  501  0.12322704133E+02 -0.27143851311E+02  0.56632196661E+03  0.59261556474E+03  0.17200000000E+03 0. -1.
</event>
<event>
 4    1  0.3196149E-002  0.2531154E+03  0.7818608E-02  0.1111352E+00
         -2   -1    0    0    0  501 -0.00000000000E+00  0.00000000000E+00  0.19626346550E+04  0.19626346550E+04  0.00000000000E+00 0.  1.
          2   -1    0    0  502    0  0.00000000000E+00 -0.00000000000E+00 -0.41833503959E+02  0.41833503959E+02  0.00000000000E+00 0. -1.
          6    1    1    2  502    0  0.16488059516E+03 -0.85427260370E+02  0.49065474884E+03  0.55209556242E+03  0.17200000000E+03 0. -1.
         -6    1    1    2    0  501 -0.16488059516E+03  0.85427260370E+02  0.14301464022E+04  0.14523725965E+04  0.17200000000E+03 0.  1.
</event>
<event>
 4    1  0.3196149E-002  0.2123545E+03  0.7818608E-02  0.1139715E+00
          2   -1    0    0  502    0  0.00000000000E+00  0.00000000000E+00  0.42037685109E+03  0.42037685109E+03  0.00000000000E+00 0. -1.
         -2   -1    0    0    0  501 -0.00000000000E+00 -0.00000000000E+00 -0.14868113422E+03  0.14868113422E+03  0.00000000000E+00 0.  1.
          6    1    1    2  502    0 -0.11227674000E+03 -0.53892303673E+02 -0.14310460813E+02  0.21283617181E+03  0.17200000000E+03 0. -1.
         -6    1    1    2    0  501  0.11227674000E+03  0.53892303673E+02  0.28600617768E+03  0.35622181350E+03  0.17200000000E+03 0.  1.
</event>
<event>
 4    1  0.3196149E-002  0.2340866E+03  0.7818608E-02  0.1123796E+00
         -2   -1    0    0    0  501 -0.00000000000E+00  0.00000000000E+00  0.50736538108E+02  0.50736538108E+02  0.00000000000E+00 0.  1.
          2   -1    0    0  502    0  0.00000000000E+00 -0.00000000000E+00 -0.15160938412E+04  0.15160938412E+04  0.00000000000E+00 0. -1.
          6    1    1    2  502    0 -0.82186119500E+02  0.13586017221E+03 -0.11528324450E+04  0.11763584449E+04  0.17200000000E+03 0. -1.
         -6    1    1    2    0  501  0.82186119500E+02 -0.13586017221E+03 -0.31252485806E+03  0.39047193438E+03  0.17200000000E+03 0.  1.
</event>
<event>
 4    1  0.3196149E-002  0.3070088E+03  0.7818608E-02  0.1081789E+00
         -4   -1    0    0    0  501 -0.00000000000E+00  0.00000000000E+00  0.10192287012E+03  0.10192287012E+03  0.00000000000E+00 0.  1.
          4   -1    0    0  502    0  0.00000000000E+00 -0.00000000000E+00 -0.97767342934E+03  0.97767342934E+03  0.00000000000E+00 0. -1.
          6    1    1    2  502    0  0.82408745068E+02  0.24058098967E+03 -0.56345183393E+03  0.64166376165E+03  0.17200000000E+03 0.  1.
         -6    1    1    2    0  501 -0.82408745068E+02 -0.24058098967E+03 -0.31229872529E+03  0.43793253781E+03  0.17200000000E+03 0.  1.
</event>
<event>
 4    1  0.3196149E-002  0.2430891E+03  0.7818608E-02  0.1117752E+00
         -3   -1    0    0    0  501 -0.00000000000E+00  0.00000000000E+00  0.25020150772E+04  0.25020150772E+04  0.00000000000E+00 0.  1.
          3   -1    0    0  502    0  0.00000000000E+00 -0.00000000000E+00 -0.32378941926E+02  0.32378941926E+02  0.00000000000E+00 0. -1.
          6    1    1    2  502    0  0.48668177768E+02  0.16474143959E+03  0.18939779628E+04  0.19095142987E+04  0.17200000000E+03 0. -1.
         -6    1    1    2    0  501 -0.48668177768E+02 -0.16474143959E+03  0.57565817255E+03  0.62487972048E+03  0.17200000000E+03 0.  1.
</event>
<event>
 4    1  0.3196149E-002  0.2017541E+03  0.7818608E-02  0.1148267E+00
          2   -1    0    0  502    0  0.00000000000E+00  0.00000000000E+00  0.47887821789E+03  0.47887821789E+03  0.00000000000E+00 0. -1.
         -2   -1    0    0    0  501 -0.00000000000E+00 -0.00000000000E+00 -0.10705504863E+03  0.10705504863E+03  0.00000000000E+00 0.  1.
          6    1    1    2  502    0 -0.63681514185E+02  0.84055812873E+02  0.31888573626E+03  0.37734974190E+03  0.17200000000E+03 0.  1.
         -6    1    1    2    0  501  0.63681514185E+02 -0.84055812873E+02  0.52937432999E+02  0.20858352461E+03  0.17200000000E+03 0.  1.
</event>
<event>
 4    1  0.3196149E-002  0.2426345E+03  0.7818608E-02  0.1118050E+00
          2   -1    0    0  502    0  0.00000000000E+00  0.00000000000E+00  0.17517586664E+03  0.17517586664E+03  0.00000000000E+00 0. -1.
         -2   -1    0    0    0  501 -0.00000000000E+00 -0.00000000000E+00 -0.76706194098E+03  0.76706194098E+03  0.00000000000E+00 0.  1.
          6    1    1    2  502    0 -0.37940124393E+02 -0.16687731560E+03  0.57199059445E+02  0.24928542658E+03  0.17200000000E+03 0. -1.
         -6    1    1    2    0  501  0.37940124393E+02  0.16687731560E+03 -0.64908513378E+03  0.69295238105E+03  0.17200000000E+03 0.  1.
</event>
<event>
 4    1  0.3196149E-002  0.1939856E+03  0.7818608E-02  0.1154915E+00
          2   -1    0    0  502    0  0.00000000000E+00  0.00000000000E+00  0.15909723296E+03  0.15909723296E+03  0.00000000000E+00 0. -1.
         -2   -1    0    0    0  501 -0.00000000000E+00 -0.00000000000E+00 -0.24474062748E+03  0.24474062748E+03  0.00000000000E+00 0.  1.
          6    1    1    2  502    0 -0.88902425320E+02 -0.11948286280E+02 -0.58255889527E+01  0.19407302816E+03  0.17200000000E+03 0.  1.
         -6    1    1    2    0  501  0.88902425320E+02  0.11948286280E+02 -0.79817805572E+02  0.20976483227E+03  0.17200000000E+03 0.  1.
</event>
<event>
 4    1  0.3196149E-002  0.2508262E+03  0.7818608E-02  0.1112784E+00
         -2   -1    0    0    0  501 -0.00000000000E+00  0.00000000000E+00  0.82901845028E+02  0.82901845028E+02  0.00000000000E+00 0.  1.
          2   -1    0    0  502    0  0.00000000000E+00 -0.00000000000E+00 -0.16193365353E+04  0.16193365353E+04  0.00000000000E+00 0. -1.
          6    1    1    2  502    0 -0.18179594310E+03 -0.16733207169E+02 -0.13886327912E+04  0.14111041045E+04  0.17200000000E+03 0. -1.
         -6    1    1    2    0  501  0.18179594310E+03  0.16733207169E+02 -0.14780189908E+03  0.29113427576E+03  0.17200000000E+03 0.  1.
</event>
<event>
 4    1  0.3196149E-002  0.2047985E+03  0.7818608E-02  0.1145753E+00
         -1   -1    0    0    0  501 -0.00000000000E+00  0.00000000000E+00  0.39470320241E+02  0.39470320241E+02  0.00000000000E+00 0.  1.
          1   -1    0    0  502    0  0.00000000000E+00 -0.00000000000E+00 -0.10695366400E+04  0.10695366400E+04  0.00000000000E+00 0. -1.
          6    1    1    2  502    0 -0.62986418334E+02  0.91603119931E+02 -0.47047976152E+03  0.51312145392E+03  0.17200000000E+03 0. -1.
         -6    1    1    2    0  501  0.62986418334E+02 -0.91603119931E+02 -0.55958655820E+03  0.59588550628E+03  0.17200000000E+03 0.  1.
</event>
<event>
 4    1  0.3196149E-002  0.1434163E+04  0.7818608E-02  0.8929455E-01
         -2   -1    0    0    0  501 -0.00000000000E+00  0.00000000000E+00  0.62351456861E+03  0.62351456861E+03  0.00000000000E+00 0.  1.
          2   -1    0    0  502    0  0.00000000000E+00 -0.00000000000E+00 -0.36613720089E+04  0.36613720089E+04  0.00000000000E+00 0. -1.
          6    1    1    2  502    0 -0.65830832901E+03  0.12624849399E+04 -0.21931636128E+04  0.26204558214E+04  0.17200000000E+03 0. -1.
         -6    1    1    2    0  501  0.65830832901E+03 -0.12624849399E+04 -0.84469382757E+03  0.16644307561E+04  0.17200000000E+03 0.  1.
</event>
<event>
 4    1  0.3196149E-002  0.2366268E+03  0.7818608E-02  0.1122061E+00
          1   -1    0    0  502    0  0.00000000000E+00  0.00000000000E+00  0.30245893005E+04  0.30245893005E+04  0.00000000000E+00 0. -1.
         -1   -1    0    0    0  501 -0.00000000000E+00 -0.00000000000E+00 -0.20804711014E+02  0.20804711014E+02  0.00000000000E+00 0.  1.
          6    1    1    2  502    0  0.71305648085E+02 -0.14602646753E+03  0.20073387206E+04  0.20212374833E+04  0.17200000000E+03 0. -1.
         -6    1    1    2    0  501 -0.71305648085E+02  0.14602646753E+03  0.99644586891E+03  0.10241565282E+04  0.17200000000E+03 0.  1.
</event>
<event>
 4    1  0.3196149E-002  0.2033625E+03  0.7818608E-02  0.1146933E+00
          1   -1    0    0  502    0  0.00000000000E+00  0.00000000000E+00  0.26644297986E+03  0.26644297986E+03  0.00000000000E+00 0. -1.
         -1   -1    0    0    0  501 -0.00000000000E+00 -0.00000000000E+00 -0.15533536315E+03  0.15533536315E+03  0.00000000000E+00 0.  1.
          6    1    1    2  502    0 -0.68082681494E+02 -0.84481065844E+02  0.61391612631E+02  0.21242700418E+03  0.17200000000E+03 0.  1.
         -6    1    1    2    0  501  0.68082681494E+02  0.84481065844E+02  0.49716004086E+02  0.20935133882E+03  0.17200000000E+03 0. -1.
</event>
<event>
 4    1  0.3196149E-002  0.2761465E+03  0.7818608E-02  0.1097812E+00
         -1   -1    0    0    0  501 -0.00000000000E+00  0.00000000000E+00  0.95773562642E+02  0.95773562642E+02  0.00000000000E+00 0.  1.
          1   -1    0    0  502    0  0.00000000000E+00 -0.00000000000E+00 -0.16843131961E+04  0.16843131961E+04  0.00000000000E+00 0. -1.
          6    1    1    2  502    0 -0.21331430961E+03 -0.34203327620E+02 -0.14405620356E+04  0.14667910011E+04  0.17200000000E+03 0. -1.
         -6    1    1    2    0  501  0.21331430961E+03  0.34203327620E+02 -0.14797759778E+03  0.31329575763E+03  0.17200000000E+03 0.  1.
</event>
<event>
 4    1  0.3196149E-002  0.1762277E+03  0.7818608E-02  0.1171505E+00
          1   -1    0    0  502    0  0.00000000000E+00  0.00000000000E+00  0.19164884276E+04  0.19164884276E+04  0.00000000000E+00 0. -1.
         -1   -1    0    0    0  501 -0.00000000000E+00 -0.00000000000E+00 -0.19335203571E+02  0.19335203571E+02  0.00000000000E+00 0.  1.
          6    1    1    2  502    0 -0.33803253871E+02  0.18153130363E+02  0.13380392173E+04  0.13495944365E+04  0.17200000000E+03 0. -1.
         -6    1    1    2    0  501  0.33803253871E+02 -0.18153130363E+02  0.55911400674E+03  0.58622919464E+03  0.17200000000E+03 0.  1.
</event>
<event>
 4    1  0.3196149E-002  0.1921548E+03  0.7818608E-02  0.1156532E+00
         -1   -1    0    0    0  501 -0.00000000000E+00  0.00000000000E+00  0.96496554006E+02  0.96496554006E+02  0.00000000000E+00 0.  1.
          1   -1    0    0  502    0  0.00000000000E+00 -0.00000000000E+00 -0.38286728190E+03  0.38286728190E+03  0.00000000000E+00 0. -1.
          6    1    1    2  502    0  0.69984329714E+02  0.49413263722E+02 -0.14902036157E+03  0.24316773059E+03  0.17200000000E+03 0.  1.
         -6    1    1    2    0  501 -0.69984329714E+02 -0.49413263722E+02 -0.13735036632E+03  0.23619610532E+03  0.17200000000E+03 0. -1.
</event>
<event>
 4    1  0.3196149E-002  0.2044928E+03  0.7818608E-02  0.1146003E+00
          2   -1    0    0  502    0  0.00000000000E+00  0.00000000000E+00  0.56249325276E+03  0.56249325276E+03  0.00000000000E+00 0. -1.
         -2   -1    0    0    0  501 -0.00000000000E+00 -0.00000000000E+00 -0.88212640884E+02  0.88212640884E+02  0.00000000000E+00 0.  1.
          6    1    1    2  502    0 -0.42598234843E+02 -0.10207192259E+03  0.36615111092E+03  0.41938517263E+03  0.17200000000E+03 0. -1.
         -6    1    1    2    0  501  0.42598234843E+02  0.10207192259E+03  0.10812950096E+03  0.23132072102E+03  0.17200000000E+03 0.  1.
</event>
<event>
 4    1  0.3196149E-002  0.1760168E+03  0.7818608E-02  0.1171715E+00
         -2   -1    0    0    0  501 -0.00000000000E+00  0.00000000000E+00  0.33243667579E+03  0.33243667579E+03  0.00000000000E+00 0.  1.
          2   -1    0    0  502    0  0.00000000000E+00 -0.00000000000E+00 -0.10400883652E+03  0.10400883652E+03  0.00000000000E+00 0. -1.
          6    1    1    2  502    0  0.27878879138E+02 -0.24913752509E+02  0.18457381080E+03  0.25504787512E+03  0.17200000000E+03 0.  1.
         -6    1    1    2    0  501 -0.27878879138E+02  0.24913752509E+02  0.43854028466E+02  0.18139763719E+03  0.17200000000E+03 0. -1.
</event>
<event>
 4    1  0.3196149E-002  0.2506482E+03  0.7818608E-02  0.1112896E+00
         -2   -1    0    0    0  501 -0.00000000000E+00  0.00000000000E+00  0.28401874624E+03  0.28401874624E+03  0.00000000000E+00 0.  1.
          2   -1    0    0  502    0  0.00000000000E+00 -0.00000000000E+00 -0.22605654200E+03  0.22605654200E+03  0.00000000000E+00 0. -1.
          6    1    1    2  502    0  0.16048215129E+02  0.18161215372E+03 -0.84064082316E+01  0.25078912913E+03  0.17200000000E+03 0. -1.
         -6    1    1    2    0  501 -0.16048215129E+02 -0.18161215372E+03  0.66368612466E+02  0.25928615912E+03  0.17200000000E+03 0.  1.
</event>
<event>
 4    1  0.3196149E-002  0.2825275E+03  0.7818608E-02  0.1094316E+00
          2   -1    0    0  502    0  0.00000000000E+00  0.00000000000E+00  0.24261942703E+03  0.24261942703E+03  0.00000000000E+00 0. -1.
         -2   -1    0    0    0  501 -0.00000000000E+00 -0.00000000000E+00 -0.44100199871E+03  0.44100199871E+03  0.00000000000E+00 0.  1.
          6    1    1    2  502    0 -0.23152990360E+02 -0.22293884197E+03  0.73066279117E+02  0.29182266767E+03  0.17200000000E+03 0. -1.
         -6    1    1    2    0  501  0.23152990360E+02  0.22293884197E+03 -0.27144885080E+03  0.39179875806E+03  0.17200000000E+03 0.  1.
</event>
<event>
 4    1  0.3196149E-002  0.5236339E+03  0.7818608E-02  0.1007788E+00
         -2   -1    0    0    0  501 -0.00000000000E+00  0.00000000000E+00  0.19647809786E+03  0.19647809786E+03  0.00000000000E+00 0.  1.
          2   -1    0    0  502    0  0.00000000000E+00 -0.00000000000E+00 -0.22617459165E+04  0.22617459165E+04  0.00000000000E+00 0. -1.
          6    1    1    2  502    0 -0.20723859121E+03 -0.44906642152E+03 -0.17932768540E+04  0.18681633654E+04  0.17200000000E+03 0. -1.
         -6    1    1    2    0  501  0.20723859121E+03  0.44906642152E+03 -0.27199096461E+03  0.59006064896E+03  0.17200000000E+03 0.  1.
</event>
<event>
 4    1  0.3196149E-002  0.1763476E+03  0.7818608E-02  0.1171385E+00
          2   -1    0    0  502    0  0.00000000000E+00  0.00000000000E+00  0.14511004797E+04  0.14511004797E+04  0.00000000000E+00 0. -1.
         -2   -1    0    0    0  501 -0.00000000000E+00 -0.00000000000E+00 -0.28074299093E+02  0.28074299093E+02  0.00000000000E+00 0.  1.
          6    1    1    2  502    0 -0.38406250828E+02  0.62795005873E+01  0.35174027969E+03  0.39347134150E+03  0.17200000000E+03 0.  1.
         -6    1    1    2    0  501  0.38406250828E+02 -0.62795005873E+01  0.10712859009E+04  0.10857034373E+04  0.17200000000E+03 0. -1.
</event>
<event>
 4    1  0.3196149E-002  0.2462518E+03  0.7818608E-02  0.1115697E+00
          2   -1    0    0  502    0  0.00000000000E+00  0.00000000000E+00  0.13775725790E+04  0.13775725790E+04  0.00000000000E+00 0. -1.
         -2   -1    0    0    0  501 -0.00000000000E+00 -0.00000000000E+00 -0.10271844175E+03  0.10271844175E+03  0.00000000000E+00 0.  1.
          6    1    1    2  502    0 -0.16483617461E+03 -0.62329563687E+02  0.11969377068E+04  0.12220064701E+04  0.17200000000E+03 0. -1.
         -6    1    1    2    0  501  0.16483617461E+03  0.62329563687E+02  0.77916430437E+02  0.25828455065E+03  0.17200000000E+03 0.  1.
</event>
<event>
 4    1  0.3196149E-002  0.2641222E+03  0.7818608E-02  0.1104692E+00
         -2   -1    0    0    0  501 -0.00000000000E+00  0.00000000000E+00  0.34356851619E+02  0.34356851619E+02  0.00000000000E+00 0.  1.
          2   -1    0    0  502    0  0.00000000000E+00 -0.00000000000E+00 -0.20324072214E+04  0.20324072214E+04  0.00000000000E+00 0. -1.
          6    1    1    2  502    0  0.15585781037E+03 -0.12603528549E+03 -0.10309306889E+04  0.10642267783E+04  0.17200000000E+03 0.  1.
         -6    1    1    2    0  501 -0.15585781037E+03  0.12603528549E+03 -0.96711968085E+03  0.10025372947E+04  0.17200000000E+03 0. -1.
</event>
<event>
 4    1  0.3196149E-002  0.3577014E+03  0.7818608E-02  0.1059498E+00
          1   -1    0    0  502    0  0.00000000000E+00  0.00000000000E+00  0.28819433849E+04  0.28819433849E+04  0.00000000000E+00 0. -1.
         -1   -1    0    0    0  501 -0.00000000000E+00 -0.00000000000E+00 -0.44525963733E+02  0.44525963733E+02  0.00000000000E+00 0.  1.
          6    1    1    2  502    0  0.13831583589E+03  0.28148715878E+03  0.13400293729E+04  0.13869495345E+04  0.17200000000E+03 0.  1.
         -6    1    1    2    0  501 -0.13831583589E+03 -0.28148715878E+03  0.14973880483E+04  0.15395198141E+04  0.17200000000E+03 0.  1.
</event>
<event>
 4    1  0.3196149E-002  0.7918739E+03  0.7818608E-02  0.9571854E-01
          1   -1    0    0  502    0  0.00000000000E+00  0.00000000000E+00  0.64484251067E+03  0.64484251067E+03  0.00000000000E+00 0. -1.
         -1   -1    0    0    0  501 -0.00000000000E+00 -0.00000000000E+00 -0.10649135864E+04  0.10649135864E+04  0.00000000000E+00 0.  1.
          6    1    1    2  502    0 -0.52220567371E+03 -0.56989603688E+03  0.41894011345E+02  0.79298131548E+03  0.17200000000E+03 0. -1.
         -6    1    1    2    0  501  0.52220567371E+03  0.56989603688E+03 -0.46196508710E+03  0.91677478162E+03  0.17200000000E+03 0.  1.
</event>
<event>
 4    1  0.3196149E-002  0.5766793E+03  0.7818608E-02  0.9955006E-01
         -2   -1    0    0    0  501 -0.00000000000E+00  0.00000000000E+00  0.92795092564E+03  0.92795092564E+03  0.00000000000E+00 0.  1.
          2   -1    0    0  502    0  0.00000000000E+00 -0.00000000000E+00 -0.58116379428E+03  0.58116379428E+03  0.00000000000E+00 0. -1.
          6    1    1    2  502    0  0.29233863100E+03 -0.46638306829E+03 -0.29378702794E+03  0.64720156007E+03  0.17200000000E+03 0. -1.
         -6    1    1    2    0  501 -0.29233863100E+03  0.46638306829E+03  0.64057415930E+03  0.86191315985E+03  0.17200000000E+03 0.  1.
</event>
<event>
 4    1  0.3196149E-002  0.2544523E+03  0.7818608E-02  0.1110523E+00
         -1   -1    0    0    0  501 -0.00000000000E+00  0.00000000000E+00  0.11800988934E+04  0.11800988934E+04  0.00000000000E+00 0.  1.
          1   -1    0    0  502    0  0.00000000000E+00 -0.00000000000E+00 -0.68889883331E+02  0.68889883331E+02  0.00000000000E+00 0. -1.
          6    1    1    2  502    0  0.17086972235E+03 -0.77236774863E+02  0.27382958291E+03  0.37380291851E+03  0.17200000000E+03 0. -1.
         -6    1    1    2    0  501 -0.17086972235E+03  0.77236774863E+02  0.83737942716E+03  0.87518585822E+03  0.17200000000E+03 0.  1.
</event>
<event>
 4    1  0.3196149E-002  0.1762668E+03  0.7818608E-02  0.1171466E+00
          2   -1    0    0  502    0  0.00000000000E+00  0.00000000000E+00  0.16395925849E+04  0.16395925849E+04  0.00000000000E+00 0. -1.
         -2   -1    0    0    0  501 -0.00000000000E+00 -0.00000000000E+00 -0.37871783437E+02  0.37871783437E+02  0.00000000000E+00 0.  1.
          6    1    1    2  502    0  0.37810781646E+02 -0.75058621816E+01  0.13937153741E+04  0.14048176170E+04  0.17200000000E+03 0. -1.
         -6    1    1    2    0  501 -0.37810781646E+02  0.75058621816E+01  0.20800542738E+03  0.27264675130E+03  0.17200000000E+03 0.  1.
</event>
<event>
 4    1  0.3196149E-002  0.2122703E+03  0.7818608E-02  0.1139781E+00
         -1   -1    0    0    0  501 -0.00000000000E+00  0.00000000000E+00  0.75998416348E+02  0.75998416348E+02  0.00000000000E+00 0.  1.
          1   -1    0    0  502    0  0.00000000000E+00 -0.00000000000E+00 -0.84012933268E+03  0.84012933268E+03  0.00000000000E+00 0. -1.
          6    1    1    2  502    0 -0.10722360264E+03 -0.63069473776E+02 -0.63055735434E+03  0.66532791659E+03  0.17200000000E+03 0. -1.
         -6    1    1    2    0  501  0.10722360264E+03  0.63069473776E+02 -0.13357356199E+03  0.25079983243E+03  0.17200000000E+03 0.  1.
</event>
<event>
 4    1  0.3196149E-002  0.3247500E+03  0.7818608E-02  0.1073484E+00
         -2   -1    0    0    0  501 -0.00000000000E+00  0.00000000000E+00  0.19804101797E+03  0.19804101797E+03  0.00000000000E+00 0.  1.
          2   -1    0    0  502    0  0.00000000000E+00 -0.00000000000E+00 -0.56774362096E+03  0.56774362096E+03  0.00000000000E+00 0. -1.
          6    1    1    2  502    0  0.25686452949E+03  0.99494716490E+02 -0.28021037801E+03  0.42892941268E+03  0.17200000000E+03 0. -1.
         -6    1    1    2    0  501 -0.25686452949E+03 -0.99494716490E+02 -0.89492224973E+02  0.33685522625E+03  0.17200000000E+03 0.  1.
</event>
<event>
 4    1  0.3196149E-002  0.3470303E+03  0.7818608E-02  0.1063841E+00
          2   -1    0    0  502    0  0.00000000000E+00  0.00000000000E+00  0.27456846257E+04  0.27456846257E+04  0.00000000000E+00 0. -1.
         -2   -1    0    0    0  501 -0.00000000000E+00 -0.00000000000E+00 -0.57600038275E+02  0.57600038275E+02  0.00000000000E+00 0.  1.
          6    1    1    2  502    0 -0.29097900306E+03  0.78595507488E+02  0.20285762597E+04  0.20580455961E+04  0.17200000000E+03 0. -1.
         -6    1    1    2    0  501  0.29097900306E+03 -0.78595507488E+02  0.65950832774E+03  0.74523906793E+03  0.17200000000E+03 0.  1.
</event>
<event>
 4    1  0.3196149E-002  0.2230936E+03  0.7818608E-02  0.1131597E+00
         -1   -1    0    0    0  501 -0.00000000000E+00  0.00000000000E+00  0.10086543255E+03  0.10086543255E+03  0.00000000000E+00 0.  1.
          1   -1    0    0  502    0  0.00000000000E+00 -0.00000000000E+00 -0.71879269994E+03  0.71879269994E+03  0.00000000000E+00 0. -1.
          6    1    1    2  502    0  0.78358291472E+02 -0.11851897480E+03 -0.53843837454E+03  0.58282643421E+03  0.17200000000E+03 0. -1.
         -6    1    1    2    0  501 -0.78358291472E+02  0.11851897480E+03 -0.79488892848E+02  0.23683169829E+03  0.17200000000E+03 0.  1.
</event>
<event>
 4    1  0.3196149E-002  0.2634412E+03  0.7818608E-02  0.1105093E+00
         -2   -1    0    0    0  501 -0.00000000000E+00  0.00000000000E+00  0.80708510012E+02  0.80708510012E+02  0.00000000000E+00 0.  1.
          2   -1    0    0  502    0  0.00000000000E+00 -0.00000000000E+00 -0.97473292482E+03  0.97473292482E+03  0.00000000000E+00 0. -1.
          6    1    1    2  502    0 -0.19948003254E+03  0.49981058875E+01 -0.62814377616E+03  0.68115040040E+03  0.17200000000E+03 0. -1.
         -6    1    1    2    0  501  0.19948003254E+03 -0.49981058875E+01 -0.26588063865E+03  0.37429103443E+03  0.17200000000E+03 0.  1.
</event>
<event>
 4    1  0.3196149E-002  0.2209290E+03  0.7818608E-02  0.1133192E+00
         -2   -1    0    0    0  501 -0.00000000000E+00  0.00000000000E+00  0.16595050257E+04  0.16595050257E+04  0.00000000000E+00 0.  1.
          2   -1    0    0  502    0  0.00000000000E+00 -0.00000000000E+00 -0.50331806720E+02  0.50331806720E+02  0.00000000000E+00 0. -1.
          6    1    1    2  502    0  0.13761143373E+03 -0.16991302199E+02  0.25342280736E+03  0.33620340619E+03  0.17200000000E+03 0. -1.
         -6    1    1    2    0  501 -0.13761143373E+03  0.16991302199E+02  0.13557504116E+04  0.13736334262E+04  0.17200000000E+03 0.  1.
</event>
<event>
 4    1  0.3196149E-002  0.2036773E+03  0.7818608E-02  0.1146673E+00
          2   -1    0    0  502    0  0.00000000000E+00  0.00000000000E+00  0.86720537631E+03  0.86720537631E+03  0.00000000000E+00 0. -1.
         -2   -1    0    0    0  501 -0.00000000000E+00 -0.00000000000E+00 -0.48674159506E+02  0.48674159506E+02  0.00000000000E+00 0.  1.
          6    1    1    2  502    0  0.10848926245E+03 -0.11424841343E+02  0.34920632579E+03  0.40426415256E+03  0.17200000000E+03 0. -1.
         -6    1    1    2    0  501 -0.10848926245E+03  0.11424841343E+02  0.46932489101E+03  0.51161538326E+03  0.17200000000E+03 0. -1.
</event>
<event>
 4    1  0.3196149E-002  0.1938109E+03  0.7818608E-02  0.1155068E+00
          2   -1    0    0  502    0  0.00000000000E+00  0.00000000000E+00  0.26419255266E+04  0.26419255266E+04  0.00000000000E+00 0. -1.
         -2   -1    0    0    0  501 -0.00000000000E+00 -0.00000000000E+00 -0.14878215036E+02  0.14878215036E+02  0.00000000000E+00 0.  1.
          6    1    1    2  502    0 -0.89016861410E+02  0.73928674347E+01  0.10336727136E+04  0.10516852832E+04  0.17200000000E+03 0. -1.
         -6    1    1    2    0  501  0.89016861410E+02 -0.73928674347E+01  0.15933745980E+04  0.16051184585E+04  0.17200000000E+03 0.  1.
</event>
<event>
 4    1  0.3196149E-002  0.1730904E+03  0.7818608E-02  0.1174663E+00
          1   -1    0    0  502    0  0.00000000000E+00  0.00000000000E+00  0.11040488780E+03  0.11040488780E+03  0.00000000000E+00 0. -1.
         -1   -1    0    0    0  501 -0.00000000000E+00 -0.00000000000E+00 -0.28169967595E+03  0.28169967595E+03  0.00000000000E+00 0.  1.
          6    1    1    2  502    0  0.15308119428E+02 -0.11913801421E+02 -0.48100098545E+02  0.17964937146E+03  0.17200000000E+03 0. -1.
         -6    1    1    2    0  501 -0.15308119428E+02  0.11913801421E+02 -0.12319468961E+03  0.21245519230E+03  0.17200000000E+03 0.  1.
</event>
<event>
 4    1  0.3196149E-002  0.2706534E+03  0.7818608E-02  0.1100906E+00
          2   -1    0    0  502    0  0.00000000000E+00  0.00000000000E+00  0.17132003057E+04  0.17132003057E+04  0.00000000000E+00 0. -1.
         -2   -1    0    0    0  501 -0.00000000000E+00 -0.00000000000E+00 -0.74887411781E+02  0.74887411781E+02  0.00000000000E+00 0.  1.
          6    1    1    2  502    0  0.11878251372E+03 -0.17193012216E+03  0.14047615854E+04  0.14305972055E+04  0.17200000000E+03 0. -1.
         -6    1    1    2    0  501 -0.11878251372E+03  0.17193012216E+03  0.23355130853E+03  0.35749051203E+03  0.17200000000E+03 0.  1.
</event>
<event>
 4    1  0.3196149E-002  0.2058636E+03  0.7818608E-02  0.1144884E+00
         -1   -1    0    0    0  501 -0.00000000000E+00  0.00000000000E+00  0.10820520625E+03  0.10820520625E+03  0.00000000000E+00 0.  1.
          1   -1    0    0  502    0  0.00000000000E+00 -0.00000000000E+00 -0.14697875267E+04  0.14697875267E+04  0.00000000000E+00 0. -1.
          6    1    1    2  502    0  0.95601034340E+02 -0.60467010288E+02 -0.13565356028E+04  0.13720672938E+04  0.17200000000E+03 0. -1.
         -6    1    1    2    0  501 -0.95601034340E+02  0.60467010288E+02 -0.50467176021E+01  0.20592543908E+03  0.17200000000E+03 0.  1.
</event>
<event>
 4    1  0.3196149E-002  0.2439567E+03  0.7818608E-02  0.1117185E+00
         -1   -1    0    0    0  501 -0.00000000000E+00  0.00000000000E+00  0.24280003198E+03  0.24280003198E+03  0.00000000000E+00 0.  1.
          1   -1    0    0  502    0  0.00000000000E+00 -0.00000000000E+00 -0.62817357443E+03  0.62817357443E+03  0.00000000000E+00 0. -1.
          6    1    1    2  502    0  0.15427230128E+02 -0.17231614407E+03 -0.53275464518E+03  0.58595423447E+03  0.17200000000E+03 0. -1.
         -6    1    1    2    0  501 -0.15427230128E+02  0.17231614407E+03  0.14738110273E+03  0.28501937193E+03  0.17200000000E+03 0.  1.
</event>
<event>
 4    1  0.3196149E-002  0.3823885E+03  0.7818608E-02  0.1050054E+00
         -1   -1    0    0    0  501 -0.00000000000E+00  0.00000000000E+00  0.58516885378E+03  0.58516885378E+03  0.00000000000E+00 0.  1.
          1   -1    0    0  502    0  0.00000000000E+00 -0.00000000000E+00 -0.59449576209E+03  0.59449576209E+03  0.00000000000E+00 0. -1.
          6    1    1    2  502    0  0.10641021930E+03  0.32452094042E+03 -0.45374255065E+03  0.59338290994E+03  0.17200000000E+03 0. -1.
         -6    1    1    2    0  501 -0.10641021930E+03 -0.32452094042E+03  0.44441564234E+03  0.58628170593E+03  0.17200000000E+03 0.  1.
</event>
<event>
 4    1  0.3196149E-002  0.1790016E+03  0.7818608E-02  0.1168773E+00
          2   -1    0    0  502    0  0.00000000000E+00  0.00000000000E+00  0.10318002510E+04  0.10318002510E+04  0.00000000000E+00 0. -1.
         -2   -1    0    0    0  501 -0.00000000000E+00 -0.00000000000E+00 -0.31473462524E+02  0.31473462524E+02  0.00000000000E+00 0.  1.
          6    1    1    2  502    0  0.49356098926E+02  0.46424820576E+01  0.43879238889E+03  0.47389907964E+03  0.17200000000E+03 0.  1.
         -6    1    1    2    0  501 -0.49356098926E+02 -0.46424820576E+01  0.56153439959E+03  0.58937463388E+03  0.17200000000E+03 0.  1.
</event>
<event>
 4    1  0.3196149E-002  0.2090437E+03  0.7818608E-02  0.1142325E+00
          2   -1    0    0  502    0  0.00000000000E+00  0.00000000000E+00  0.33441119615E+04  0.33441119615E+04  0.00000000000E+00 0. -1.
         -2   -1    0    0    0  501 -0.00000000000E+00 -0.00000000000E+00 -0.13601308986E+02  0.13601308986E+02  0.00000000000E+00 0.  1.
          6    1    1    2  502    0  0.11880374266E+03  0.97776412972E+00  0.19978411715E+04  0.20087480259E+04  0.17200000000E+03 0. -1.
         -6    1    1    2    0  501 -0.11880374266E+03 -0.97776412972E+00  0.13326694811E+04  0.13489652446E+04  0.17200000000E+03 0.  1.
</event>
<event>
 4    1  0.3196149E-002  0.2511993E+03  0.7818608E-02  0.1112549E+00
         -2   -1    0    0    0  501 -0.00000000000E+00  0.00000000000E+00  0.42068715817E+03  0.42068715817E+03  0.00000000000E+00 0.  1.
          2   -1    0    0  502    0  0.00000000000E+00 -0.00000000000E+00 -0.29407986091E+03  0.29407986091E+03  0.00000000000E+00 0. -1.
          6    1    1    2  502    0 -0.86959857146E+02 -0.16110579108E+03 -0.18685216742E+03  0.31307319455E+03  0.17200000000E+03 0. -1.
         -6    1    1    2    0  501  0.86959857146E+02  0.16110579108E+03  0.31345946468E+03  0.40169382454E+03  0.17200000000E+03 0.  1.
</event>
<event>
 4    1  0.3196149E-002  0.3609878E+03  0.7818608E-02  0.1058193E+00
          1   -1    0    0  502    0  0.00000000000E+00  0.00000000000E+00  0.13823697344E+04  0.13823697344E+04  0.00000000000E+00 0. -1.
         -1   -1    0    0    0  501 -0.00000000000E+00 -0.00000000000E+00 -0.16116391523E+03  0.16116391523E+03  0.00000000000E+00 0.  1.
          6    1    1    2  502    0 -0.21626005886E+03 -0.23229237258E+03  0.11078296946E+04  0.11651604145E+04  0.17200000000E+03 0. -1.
         -6    1    1    2    0  501  0.21626005886E+03  0.23229237258E+03  0.11337612461E+03  0.37837323512E+03  0.17200000000E+03 0.  1.
</event>
<event>
 4    1  0.3196149E-002  0.2980067E+03  0.7818608E-02  0.1086241E+00
         -1   -1    0    0    0  501 -0.00000000000E+00  0.00000000000E+00  0.42758995348E+03  0.42758995348E+03  0.00000000000E+00 0.  1.
          1   -1    0    0  502    0  0.00000000000E+00 -0.00000000000E+00 -0.23390010456E+03  0.23390010456E+03  0.00000000000E+00 0. -1.
          6    1    1    2  502    0  0.21991225860E+03  0.10422385609E+03 -0.13862443532E+02  0.29832898116E+03  0.17200000000E+03 0. -1.
         -6    1    1    2    0  501 -0.21991225860E+03 -0.10422385609E+03  0.20755229245E+03  0.36316107688E+03  0.17200000000E+03 0.  1.
</event>
<event>
 4    1  0.3196149E-002  0.1951831E+03  0.7818608E-02  0.1153868E+00
          2   -1    0    0  502    0  0.00000000000E+00  0.00000000000E+00  0.10585108289E+04  0.10585108289E+04  0.00000000000E+00 0. -1.
         -2   -1    0    0    0  501 -0.00000000000E+00 -0.00000000000E+00 -0.80791242603E+02  0.80791242603E+02  0.00000000000E+00 0.  1.
          6    1    1    2  502    0 -0.66193559326E+02  0.64271751396E+02  0.64661570985E+02  0.20561508720E+03  0.17200000000E+03 0.  1.
         -6    1    1    2    0  501  0.66193559326E+02 -0.64271751396E+02  0.91305801527E+03  0.93368698426E+03  0.17200000000E+03 0. -1.
</event>
<event>
 4    1  0.3196149E-002  0.1753948E+03  0.7818608E-02  0.1172336E+00
         -1   -1    0    0    0  501 -0.00000000000E+00  0.00000000000E+00  0.10168171849E+03  0.10168171849E+03  0.00000000000E+00 0.  1.
          1   -1    0    0  502    0  0.00000000000E+00 -0.00000000000E+00 -0.46800671136E+03  0.46800671136E+03  0.00000000000E+00 0. -1.
          6    1    1    2  502    0  0.24222370692E+02 -0.24343382896E+02 -0.35252987178E+03  0.39375199559E+03  0.17200000000E+03 0. -1.
         -6    1    1    2    0  501 -0.24222370692E+02  0.24343382896E+02 -0.13795121084E+02  0.17593643426E+03  0.17200000000E+03 0.  1.
</event>
<event>
 4    1  0.3196149E-002  0.4960480E+03  0.7818608E-02  0.1014816E+00
         -1   -1    0    0    0  501 -0.00000000000E+00  0.00000000000E+00  0.39875327618E+03  0.39875327618E+03  0.00000000000E+00 0.  1.
          1   -1    0    0  502    0  0.00000000000E+00 -0.00000000000E+00 -0.11184291160E+04  0.11184291160E+04  0.00000000000E+00 0. -1.
          6    1    1    2  502    0 -0.42166981535E+03  0.19665752636E+03 -0.86773143423E+03  0.99951060915E+03  0.17200000000E+03 0. -1.
         -6    1    1    2    0  501  0.42166981535E+03 -0.19665752636E+03  0.14805559447E+03  0.51767178299E+03  0.17200000000E+03 0.  1.
</event>
<event>
 4    1  0.3196149E-002  0.3957168E+03  0.7818608E-02  0.1045273E+00
          2   -1    0    0  502    0  0.00000000000E+00  0.00000000000E+00  0.13969924392E+04  0.13969924392E+04  0.00000000000E+00 0. -1.
         -2   -1    0    0    0  501 -0.00000000000E+00 -0.00000000000E+00 -0.13781083101E+03  0.13781083101E+03  0.00000000000E+00 0.  1.
          6    1    1    2  502    0  0.34894675601E+03  0.72415200043E+02  0.96110788686E+03  0.10393845150E+04  0.17200000000E+03 0. -1.
         -6    1    1    2    0  501 -0.34894675601E+03 -0.72415200043E+02  0.29807372137E+03  0.49541875530E+03  0.17200000000E+03 0.  1.
</event>
<event>
 4    1  0.3196149E-002  0.1726248E+03  0.7818608E-02  0.1175138E+00
         -1   -1    0    0    0  501 -0.00000000000E+00  0.00000000000E+00  0.92378518988E+02  0.92378518988E+02  0.00000000000E+00 0.  1.
          1   -1    0    0  502    0  0.00000000000E+00 -0.00000000000E+00 -0.33815759987E+03  0.33815759987E+03  0.00000000000E+00 0. -1.
          6    1    1    2  502    0  0.12909275171E+02  0.69774689171E+01 -0.16909461076E+03  0.24164503273E+03  0.17200000000E+03 0. -1.
         -6    1    1    2    0  501 -0.12909275171E+02 -0.69774689171E+01 -0.76684470120E+02  0.18889108612E+03  0.17200000000E+03 0.  1.
</event>
<event>
 4    1  0.3196149E-002  0.2239654E+03  0.7818608E-02  0.1130961E+00
         -2   -1    0    0    0  501 -0.00000000000E+00  0.00000000000E+00  0.32943446970E+02  0.32943446970E+02  0.00000000000E+00 0.  1.
          2   -1    0    0  502    0  0.00000000000E+00 -0.00000000000E+00 -0.21223763579E+04  0.21223763579E+04  0.00000000000E+00 0. -1.
          6    1    1    2  502    0  0.13967669095E+03  0.32663707578E+02 -0.16175868327E+04  0.16330179599E+04  0.17200000000E+03 0. -1.
         -6    1    1    2    0  501 -0.13967669095E+03 -0.32663707578E+02 -0.47184607815E+03  0.52230184496E+03  0.17200000000E+03 0.  1.
</event>
<event>
 4    1  0.3196149E-002  0.2349793E+03  0.7818608E-02  0.1123183E+00
          1   -1    0    0  502    0  0.00000000000E+00  0.00000000000E+00  0.58699355763E+02  0.58699355763E+02  0.00000000000E+00 0. -1.
         -1   -1    0    0    0  501 -0.00000000000E+00 -0.00000000000E+00 -0.10441160851E+04  0.10441160851E+04  0.00000000000E+00 0.  1.
          6    1    1    2  502    0  0.10149341622E+03  0.12381575800E+03 -0.31912505992E+03  0.39630298931E+03  0.17200000000E+03 0. -1.
         -6    1    1    2    0  501 -0.10149341622E+03 -0.12381575800E+03 -0.66629166938E+03  0.70651245152E+03  0.17200000000E+03 0.  1.
</event>
<event>
 4    1  0.3196149E-002  0.1764955E+03  0.7818608E-02  0.1171238E+00
          2   -1    0    0  502    0  0.00000000000E+00  0.00000000000E+00  0.45842313516E+02  0.45842313516E+02  0.00000000000E+00 0. -1.
         -2   -1    0    0    0  501 -0.00000000000E+00 -0.00000000000E+00 -0.84195532995E+03  0.84195532995E+03  0.00000000000E+00 0.  1.
          6    1    1    2  502    0  0.36691735247E+02 -0.14844719599E+02 -0.59303342852E+03  0.61874008798E+03  0.17200000000E+03 0. -1.
         -6    1    1    2    0  501 -0.36691735247E+02  0.14844719599E+02 -0.20307958792E+03  0.26905755548E+03  0.17200000000E+03 0. -1.
</event>
<event>
 4    1  0.3196149E-002  0.1784981E+03  0.7818608E-02  0.1169265E+00
          2   -1    0    0  502    0  0.00000000000E+00  0.00000000000E+00  0.51802130755E+02  0.51802130755E+02  0.00000000000E+00 0. -1.
         -2   -1    0    0    0  501 -0.00000000000E+00 -0.00000000000E+00 -0.62620794089E+03  0.62620794089E+03  0.00000000000E+00 0.  1.
          6    1    1    2  502    0 -0.11944626530E+02 -0.46205017375E+02 -0.33242850383E+03  0.37731987476E+03  0.17200000000E+03 0. -1.
         -6    1    1    2    0  501  0.11944626530E+02  0.46205017375E+02 -0.24197730630E+03  0.30069019688E+03  0.17200000000E+03 0. -1.
</event>
<event>
 4    1  0.3196149E-002  0.2508527E+03  0.7818608E-02  0.1112767E+00
          2   -1    0    0  502    0  0.00000000000E+00  0.00000000000E+00  0.29534311416E+04  0.29534311416E+04  0.00000000000E+00 0. -1.
         -2   -1    0    0    0  501 -0.00000000000E+00 -0.00000000000E+00 -0.21362107817E+02  0.21362107817E+02  0.00000000000E+00 0.  1.
          6    1    1    2  502    0  0.16441584544E+03  0.79438739510E+02  0.15419679522E+04  0.15622394980E+04  0.17200000000E+03 0. -1.
         -6    1    1    2    0  501 -0.16441584544E+03 -0.79438739510E+02  0.13901010816E+04  0.14125537514E+04  0.17200000000E+03 0. -1.
</event>
<event>
 4    1  0.3196149E-002  0.3094938E+03  0.7818608E-02  0.1080589E+00
         -1   -1    0    0    0  501 -0.00000000000E+00  0.00000000000E+00  0.31990120018E+03  0.31990120018E+03  0.00000000000E+00 0.  1.
          1   -1    0    0  502    0  0.00000000000E+00 -0.00000000000E+00 -0.33731668501E+03  0.33731668501E+03  0.00000000000E+00 0. -1.
          6    1    1    2  502    0  0.19164062177E+03 -0.17168658744E+03  0.10142907142E+03  0.32569044927E+03  0.17200000000E+03 0. -1.
         -6    1    1    2    0  501 -0.19164062177E+03  0.17168658744E+03 -0.11884455625E+03  0.33152743592E+03  0.17200000000E+03 0.  1.
</event>
<event>
 4    1  0.3196149E-002  0.3933231E+03  0.7818608E-02  0.1046116E+00
          2   -1    0    0  502    0  0.00000000000E+00  0.00000000000E+00  0.20981416849E+03  0.20981416849E+03  0.00000000000E+00 0. -1.
         -2   -1    0    0    0  501 -0.00000000000E+00 -0.00000000000E+00 -0.77609906176E+03  0.77609906176E+03  0.00000000000E+00 0.  1.
          6    1    1    2  502    0 -0.10815197040E+03 -0.33678214801E+03 -0.39331460557E+03  0.55623685860E+03  0.17200000000E+03 0. -1.
         -6    1    1    2    0  501  0.10815197040E+03  0.33678214801E+03 -0.17297028770E+03  0.42967637164E+03  0.17200000000E+03 0. -1.
</event>
<event>
 4    1  0.3196149E-002  0.2560698E+03  0.7818608E-02  0.1109528E+00
         -2   -1    0    0    0  501 -0.00000000000E+00  0.00000000000E+00  0.33256922492E+03  0.33256922492E+03  0.00000000000E+00 0.  1.
          2   -1    0    0  502    0  0.00000000000E+00 -0.00000000000E+00 -0.19946370435E+03  0.19946370435E+03  0.00000000000E+00 0. -1.
          6    1    1    2  502    0  0.18911292886E+03  0.14968244831E+02  0.38009163583E+02  0.25887534594E+03  0.17200000000E+03 0. -1.
         -6    1    1    2    0  501 -0.18911292886E+03 -0.14968244831E+02  0.95096356990E+02  0.27315758333E+03  0.17200000000E+03 0.  1.
</event>
<event>
 4    1  0.3196149E-002  0.4393422E+03  0.7818608E-02  0.1030949E+00
         -1   -1    0    0    0  501 -0.00000000000E+00  0.00000000000E+00  0.32256615615E+03  0.32256615615E+03  0.00000000000E+00 0.  1.
          1   -1    0    0  502    0  0.00000000000E+00 -0.00000000000E+00 -0.12172515324E+04  0.12172515324E+04  0.00000000000E+00 0. -1.
          6    1    1    2  502    0  0.43190710443E+02 -0.40196031918E+03 -0.99630763123E+03  0.10888757651E+04  0.17200000000E+03 0. -1.
         -6    1    1    2    0  501 -0.43190710443E+02  0.40196031918E+03  0.10162225498E+03  0.45094192350E+03  0.17200000000E+03 0.  1.
</event>
<event>
 4    1  0.3196149E-002  0.2234591E+03  0.7818608E-02  0.1131330E+00
          2   -1    0    0  502    0  0.00000000000E+00  0.00000000000E+00  0.28294395080E+04  0.28294395080E+04  0.00000000000E+00 0. -1.
         -2   -1    0    0    0  501 -0.00000000000E+00 -0.00000000000E+00 -0.23227801200E+02  0.23227801200E+02  0.00000000000E+00 0.  1.
          6    1    1    2  502    0 -0.46734886112E+02  0.13478066906E+03  0.21021844910E+04  0.21140278173E+04  0.17200000000E+03 0. -1.
         -6    1    1    2    0  501  0.46734886112E+02 -0.13478066906E+03  0.70402721581E+03  0.73863949186E+03  0.17200000000E+03 0.  1.
</event>
<event>
 4    1  0.3196149E-002  0.2635488E+03  0.7818608E-02  0.1105030E+00
          3   -1    0    0  502    0  0.00000000000E+00  0.00000000000E+00  0.31072931069E+03  0.31072931069E+03  0.00000000000E+00 0. -1.
         -3   -1    0    0    0  501 -0.00000000000E+00 -0.00000000000E+00 -0.35068367199E+03  0.35068367199E+03  0.00000000000E+00 0.  1.
          6    1    1    2  502    0 -0.13943178627E+03  0.14294310768E+03 -0.21911141352E+03  0.34273570954E+03  0.17200000000E+03 0.  1.
         -6    1    1    2    0  501  0.13943178627E+03 -0.14294310768E+03  0.17915705223E+03  0.31867727315E+03  0.17200000000E+03 0. -1.
</event>
<event>
 4    1  0.3196149E-002  0.2455014E+03  0.7818608E-02  0.1116181E+00
          2   -1    0    0  502    0  0.00000000000E+00  0.00000000000E+00  0.28033671493E+04  0.28033671493E+04  0.00000000000E+00 0. -1.
         -2   -1    0    0    0  501 -0.00000000000E+00 -0.00000000000E+00 -0.25500101524E+02  0.25500101524E+02  0.00000000000E+00 0.  1.
          6    1    1    2  502    0 -0.56811687488E+02  0.16570871003E+03  0.19491749095E+04  0.19645747051E+04  0.17200000000E+03 0. -1.
         -6    1    1    2    0  501  0.56811687488E+02 -0.16570871003E+03  0.82869213830E+03  0.86429254566E+03  0.17200000000E+03 0.  1.
</event>
<event>
 4    1  0.3196149E-002  0.3118060E+03  0.7818608E-02  0.1079483E+00
          2   -1    0    0  502    0  0.00000000000E+00  0.00000000000E+00  0.83984747527E+03  0.83984747527E+03  0.00000000000E+00 0. -1.
         -2   -1    0    0    0  501 -0.00000000000E+00 -0.00000000000E+00 -0.12536705847E+03  0.12536705847E+03  0.00000000000E+00 0.  1.
          6    1    1    2  502    0 -0.13762100839E+03  0.22067942530E+03  0.49081913576E+03  0.58148634956E+03  0.17200000000E+03 0. -1.
         -6    1    1    2    0  501  0.13762100839E+03 -0.22067942530E+03  0.22366128103E+03  0.38372818418E+03  0.17200000000E+03 0.  1.
</event>
<event>
 4    1  0.3196149E-002  0.2902361E+03  0.7818608E-02  0.1090226E+00
          2   -1    0    0  502    0  0.00000000000E+00  0.00000000000E+00  0.10357300004E+04  0.10357300004E+04  0.00000000000E+00 0. -1.
         -2   -1    0    0    0  501 -0.00000000000E+00 -0.00000000000E+00 -0.90161314574E+02  0.90161314574E+02  0.00000000000E+00 0.  1.
          6    1    1    2  502    0  0.17551327728E+03 -0.15442832515E+03  0.64895881731E+03  0.71090404745E+03  0.17200000000E+03 0. -1.
         -6    1    1    2    0  501 -0.17551327728E+03  0.15442832515E+03  0.29660986853E+03  0.41498726754E+03  0.17200000000E+03 0. -1.
</event>
<event>
 4    1  0.3196149E-002  0.2942556E+03  0.7818608E-02  0.1088148E+00
         -2   -1    0    0    0  501 -0.00000000000E+00  0.00000000000E+00  0.77852574372E+03  0.77852574372E+03  0.00000000000E+00 0.  1.
          2   -1    0    0  502    0  0.00000000000E+00 -0.00000000000E+00 -0.20405481443E+03  0.20405481443E+03  0.00000000000E+00 0. -1.
          6    1    1    2  502    0  0.86438862162E+01  0.23859512392E+03 -0.44142816168E+02  0.29754821147E+03  0.17200000000E+03 0. -1.
         -6    1    1    2    0  501 -0.86438862162E+01 -0.23859512392E+03  0.61861374546E+03  0.68503234668E+03  0.17200000000E+03 0.  1.
</event>
<event>
 4    1  0.3196149E-002  0.1727519E+03  0.7818608E-02  0.1175008E+00
          1   -1    0    0  502    0  0.00000000000E+00  0.00000000000E+00  0.19224182265E+03  0.19224182265E+03  0.00000000000E+00 0. -1.
         -1   -1    0    0    0  501 -0.00000000000E+00 -0.00000000000E+00 -0.16663215354E+03  0.16663215354E+03  0.00000000000E+00 0.  1.
          6    1    1    2  502    0  0.54574484422E+01  0.15146721868E+02 -0.34117162682E+02  0.17608857918E+03  0.17200000000E+03 0. -1.
         -6    1    1    2    0  501 -0.54574484422E+01 -0.15146721868E+02  0.59726831785E+02  0.18278539702E+03  0.17200000000E+03 0. -1.
</event>
<event>
 4    1  0.3196149E-002  0.1899606E+03  0.7818608E-02  0.1158497E+00
          2   -1    0    0  502    0  0.00000000000E+00  0.00000000000E+00  0.57219562130E+03  0.57219562130E+03  0.00000000000E+00 0. -1.
         -2   -1    0    0    0  501 -0.00000000000E+00 -0.00000000000E+00 -0.10717724857E+03  0.10717724857E+03  0.00000000000E+00 0.  1.
          6    1    1    2  502    0 -0.36534223509E+02 -0.71876824677E+02  0.45043602102E+03  0.48885338952E+03  0.17200000000E+03 0. -1.
         -6    1    1    2    0  501  0.36534223509E+02  0.71876824677E+02  0.14582351719E+02  0.19051948036E+03  0.17200000000E+03 0.  1.
</event>
<event>
 4    1  0.3196149E-002  0.1778570E+03  0.7818608E-02  0.1169893E+00
          2   -1    0    0  502    0  0.00000000000E+00  0.00000000000E+00  0.20503966804E+03  0.20503966804E+03  0.00000000000E+00 0. -1.
         -2   -1    0    0    0  501 -0.00000000000E+00 -0.00000000000E+00 -0.15530542007E+03  0.15530542007E+03  0.00000000000E+00 0.  1.
          6    1    1    2  502    0  0.37178557811E+02  0.25823660304E+02  0.10212565389E+02  0.17814994551E+03  0.17200000000E+03 0.  1.
         -6    1    1    2    0  501 -0.37178557811E+02 -0.25823660304E+02  0.39521682579E+02  0.18219514260E+03  0.17200000000E+03 0.  1.
</event>
<event>
 4    1  0.3196149E-002  0.2096865E+03  0.7818608E-02  0.1141814E+00
          1   -1    0    0  502    0  0.00000000000E+00  0.00000000000E+00  0.76006577203E+02  0.76006577203E+02  0.00000000000E+00 0. -1.
         -1   -1    0    0    0  501 -0.00000000000E+00 -0.00000000000E+00 -0.69799837478E+03  0.69799837478E+03  0.00000000000E+00 0.  1.
          6    1    1    2  502    0  0.10834803254E+03  0.51430828586E+02 -0.15085565149E+03  0.25831347984E+03  0.17200000000E+03 0. -1.
         -6    1    1    2    0  501 -0.10834803254E+03 -0.51430828586E+02 -0.47113614609E+03  0.51569147214E+03  0.17200000000E+03 0.  1.
</event>
<event>
 4    1  0.3196149E-002  0.3849006E+03  0.7818608E-02  0.1049137E+00
         -2   -1    0    0    0  501 -0.00000000000E+00  0.00000000000E+00  0.39468751460E+03  0.39468751460E+03  0.00000000000E+00 0.  1.
          2   -1    0    0  502    0  0.00000000000E+00 -0.00000000000E+00 -0.93187604300E+03  0.93187604300E+03  0.00000000000E+00 0. -1.
          6    1    1    2  502    0 -0.33205249535E+03 -0.91135122371E+02 -0.78117143138E+03  0.87084859499E+03  0.17200000000E+03 0. -1.
         -6    1    1    2    0  501  0.33205249535E+03  0.91135122371E+02  0.24398290298E+03  0.45571496261E+03  0.17200000000E+03 0.  1.
</event>
<event>
 4    1  0.3196149E-002  0.2363754E+03  0.7818608E-02  0.1122231E+00
          2   -1    0    0  502    0  0.00000000000E+00  0.00000000000E+00  0.71363130054E+03  0.71363130054E+03  0.00000000000E+00 0. -1.
         -2   -1    0    0    0  501 -0.00000000000E+00 -0.00000000000E+00 -0.88060572133E+02  0.88060572133E+02  0.00000000000E+00 0.  1.
          6    1    1    2  502    0 -0.13874313287E+03  0.83902672107E+02  0.44627560581E+03  0.50501013024E+03  0.17200000000E+03 0. -1.
         -6    1    1    2    0  501  0.13874313287E+03 -0.83902672107E+02  0.17929512260E+03  0.29668174243E+03  0.17200000000E+03 0.  1.
</event>
<event>
 4    1  0.3196149E-002  0.1850311E+03  0.7818608E-02  0.1163021E+00
         -1   -1    0    0    0  501 -0.00000000000E+00  0.00000000000E+00  0.59161489063E+02  0.59161489063E+02  0.00000000000E+00 0.  1.
          1   -1    0    0  502    0  0.00000000000E+00 -0.00000000000E+00 -0.57870054501E+03  0.57870054501E+03  0.00000000000E+00 0. -1.
          6    1    1    2  502    0 -0.62654184926E+02  0.26962364171E+02 -0.26066515492E+03  0.31966050579E+03  0.17200000000E+03 0. -1.
         -6    1    1    2    0  501  0.62654184926E+02 -0.26962364171E+02 -0.25887390103E+03  0.31820152828E+03  0.17200000000E+03 0.  1.
</event>
<event>
 4    1  0.3196149E-002  0.3292473E+03  0.7818608E-02  0.1071470E+00
          2   -1    0    0  502    0  0.00000000000E+00  0.00000000000E+00  0.18150873314E+03  0.18150873314E+03  0.00000000000E+00 0. -1.
         -2   -1    0    0    0  501 -0.00000000000E+00 -0.00000000000E+00 -0.72454887024E+03  0.72454887024E+03  0.00000000000E+00 0.  1.
          6    1    1    2  502    0  0.17911854696E+03 -0.21618581932E+03 -0.81619559620E+02  0.33921308179E+03  0.17200000000E+03 0. -1.
         -6    1    1    2    0  501 -0.17911854696E+03  0.21618581932E+03 -0.46142057748E+03  0.56684452159E+03  0.17200000000E+03 0.  1.
</event>
<event>
 4    1  0.3196149E-002  0.2697899E+03  0.7818608E-02  0.1101400E+00
         -1   -1    0    0    0  501 -0.00000000000E+00  0.00000000000E+00  0.83883477435E+02  0.83883477435E+02  0.00000000000E+00 0.  1.
          1   -1    0    0  502    0  0.00000000000E+00 -0.00000000000E+00 -0.92817194539E+03  0.92817194539E+03  0.00000000000E+00 0. -1.
          6    1    1    2  502    0  0.35749853396E+02  0.20475480122E+03 -0.55129561856E+03  0.61376985889E+03  0.17200000000E+03 0.  1.
         -6    1    1    2    0  501 -0.35749853396E+02 -0.20475480122E+03 -0.29299284940E+03  0.39828556393E+03  0.17200000000E+03 0.  1.
</event>
<event>
 4    1  0.3196149E-002  0.2279555E+03  0.7818608E-02  0.1128087E+00
          2   -1    0    0  502    0  0.00000000000E+00  0.00000000000E+00  0.89778189170E+02  0.89778189170E+02  0.00000000000E+00 0. -1.
         -2   -1    0    0    0  501 -0.00000000000E+00 -0.00000000000E+00 -0.58932273476E+03  0.58932273476E+03  0.00000000000E+00 0.  1.
          6    1    1    2  502    0  0.14030590490E+03  0.51903574089E+02 -0.29514201170E+03  0.37292430200E+03  0.17200000000E+03 0. -1.
         -6    1    1    2    0  501 -0.14030590490E+03 -0.51903574089E+02 -0.20440253389E+03  0.30617662193E+03  0.17200000000E+03 0.  1.
</event>
<event>
 4    1  0.3196149E-002  0.1857121E+03  0.7818608E-02  0.1162387E+00
          1   -1    0    0  502    0  0.00000000000E+00  0.00000000000E+00  0.64898518147E+03  0.64898518147E+03  0.00000000000E+00 0. -1.
         -1   -1    0    0    0  501 -0.00000000000E+00 -0.00000000000E+00 -0.53566823484E+02  0.53566823484E+02  0.00000000000E+00 0.  1.
          6    1    1    2  502    0 -0.37280779253E+02  0.59288417882E+02  0.26646063743E+03  0.32479261736E+03  0.17200000000E+03 0. -1.
         -6    1    1    2    0  501  0.37280779253E+02 -0.59288417882E+02  0.32895772056E+03  0.37775938759E+03  0.17200000000E+03 0.  1.
</event>
<event>
 4    1  0.3196149E-002  0.2234584E+03  0.7818608E-02  0.1131331E+00
         -2   -1    0    0    0  501 -0.00000000000E+00  0.00000000000E+00  0.52344986789E+02  0.52344986789E+02  0.00000000000E+00 0.  1.
          2   -1    0    0  502    0  0.00000000000E+00 -0.00000000000E+00 -0.10621116093E+04  0.10621116093E+04  0.00000000000E+00 0. -1.
          6    1    1    2  502    0 -0.32907005317E+02 -0.13880482173E+03 -0.32704829573E+03  0.39609877212E+03  0.17200000000E+03 0.  1.
         -6    1    1    2    0  501  0.32907005317E+02  0.13880482173E+03 -0.68271832673E+03  0.71835782392E+03  0.17200000000E+03 0.  1.
</event>
<event>
 4    1  0.3196149E-002  0.7062904E+03  0.7818608E-02  0.9706535E-01
         -2   -1    0    0    0  501 -0.00000000000E+00  0.00000000000E+00  0.47410158900E+03  0.47410158900E+03  0.00000000000E+00 0.  1.
          2   -1    0    0  502    0  0.00000000000E+00 -0.00000000000E+00 -0.11567307856E+04  0.11567307856E+04  0.00000000000E+00 0. -1.
          6    1    1    2  502    0  0.31803743963E+03  0.60672420557E+03 -0.96181960836E+02  0.71280926216E+03  0.17200000000E+03 0. -1.
         -6    1    1    2    0  501 -0.31803743963E+03 -0.60672420557E+03 -0.58644723575E+03  0.91802311243E+03  0.17200000000E+03 0.  1.
</event>
<event>
 4    1  0.3196149E-002  0.2835423E+03  0.7818608E-02  0.1093770E+00
         -2   -1    0    0    0  501 -0.00000000000E+00  0.00000000000E+00  0.13925833732E+03  0.13925833732E+03  0.00000000000E+00 0.  1.
          2   -1    0    0  502    0  0.00000000000E+00 -0.00000000000E+00 -0.96062676263E+03  0.96062676263E+03  0.00000000000E+00 0. -1.
          6    1    1    2  502    0 -0.22165919722E+03 -0.40980685137E+02 -0.75807226585E+03  0.80936380974E+03  0.17200000000E+03 0. -1.
         -6    1    1    2    0  501  0.22165919722E+03  0.40980685137E+02 -0.63296159457E+02  0.29052129021E+03  0.17200000000E+03 0.  1.
</event>
<event>
 4    1  0.3196149E-002  0.3002656E+03  0.7818608E-02  0.1085108E+00
          2   -1    0    0  502    0  0.00000000000E+00  0.00000000000E+00  0.21231992839E+04  0.21231992839E+04  0.00000000000E+00 0. -1.
         -2   -1    0    0    0  501 -0.00000000000E+00 -0.00000000000E+00 -0.56257423826E+02  0.56257423826E+02  0.00000000000E+00 0.  1.
          6    1    1    2  502    0 -0.22970902230E+03 -0.88369733487E+02  0.15730623507E+04  0.16014632696E+04  0.17200000000E+03 0. -1.
         -6    1    1    2    0  501  0.22970902230E+03  0.88369733487E+02  0.49387950934E+03  0.57799343809E+03  0.17200000000E+03 0.  1.
</event>
<event>
 4    1  0.3196149E-002  0.1762139E+03  0.7818608E-02  0.1171518E+00
         -2   -1    0    0    0  501 -0.00000000000E+00  0.00000000000E+00  0.24633096526E+02  0.24633096526E+02  0.00000000000E+00 0.  1.
          2   -1    0    0  502    0  0.00000000000E+00 -0.00000000000E+00 -0.14077258248E+04  0.14077258248E+04  0.00000000000E+00 0. -1.
          6    1    1    2  502    0 -0.11585832575E+02  0.36511618576E+02 -0.45997957636E+03  0.49257744617E+03  0.17200000000E+03 0.  1.
         -6    1    1    2    0  501  0.11585832575E+02 -0.36511618576E+02 -0.92311315187E+03  0.93978147511E+03  0.17200000000E+03 0. -1.
</event>
<event>
 4    1  0.3196149E-002  0.2346471E+03  0.7818608E-02  0.1123411E+00
         -2   -1    0    0    0  501 -0.00000000000E+00  0.00000000000E+00  0.40569747951E+03  0.40569747951E+03  0.00000000000E+00 0.  1.
          2   -1    0    0  502    0  0.00000000000E+00 -0.00000000000E+00 -0.16166997505E+03  0.16166997505E+03  0.00000000000E+00 0. -1.
          6    1    1    2  502    0 -0.12253230682E+03  0.10227940293E+03  0.23567956458E+03  0.33257194656E+03  0.17200000000E+03 0. -1.
         -6    1    1    2    0  501  0.12253230682E+03 -0.10227940293E+03  0.83479398837E+01  0.23479550800E+03  0.17200000000E+03 0.  1.
</event>
<event>
 4    1  0.3196149E-002  0.4951271E+03  0.7818608E-02  0.1015059E+00
         -1   -1    0    0    0  501 -0.00000000000E+00  0.00000000000E+00  0.26012850924E+03  0.26012850924E+03  0.00000000000E+00 0.  1.
          1   -1    0    0  502    0  0.00000000000E+00 -0.00000000000E+00 -0.12999609064E+04  0.12999609064E+04  0.00000000000E+00 0. -1.
          6    1    1    2  502    0 -0.15440829097E+03  0.43786400126E+03 -0.11082883637E+03  0.50737937965E+03  0.17200000000E+03 0. -1.
         -6    1    1    2    0  501  0.15440829097E+03 -0.43786400126E+03 -0.92900356079E+03  0.10527100360E+04  0.17200000000E+03 0.  1.
</event>
<event>
 4    1  0.3196149E-002  0.1944302E+03  0.7818608E-02  0.1154525E+00
          2   -1    0    0  502    0  0.00000000000E+00  0.00000000000E+00  0.27226167235E+03  0.27226167235E+03  0.00000000000E+00 0. -1.
         -2   -1    0    0    0  501 -0.00000000000E+00 -0.00000000000E+00 -0.14054376158E+03  0.14054376158E+03  0.00000000000E+00 0.  1.
          6    1    1    2  502    0  0.56427729358E+02  0.70957966312E+02  0.88527805134E+02  0.21363589096E+03  0.17200000000E+03 0.  1.
         -6    1    1    2    0  501 -0.56427729358E+02 -0.70957966312E+02  0.43190105633E+02  0.19916954297E+03  0.17200000000E+03 0. -1.
</event>
<event>
 4    1  0.3196149E-002  0.2067486E+03  0.7818608E-02  0.1144167E+00
         -2   -1    0    0    0  501 -0.00000000000E+00  0.00000000000E+00  0.12238037229E+03  0.12238037229E+03  0.00000000000E+00 0.  1.
          2   -1    0    0  502    0  0.00000000000E+00 -0.00000000000E+00 -0.49324491863E+03  0.49324491863E+03  0.00000000000E+00 0. -1.
          6    1    1    2  502    0  0.11147001666E+03  0.27118891631E+02 -0.35172900017E+03  0.40799300050E+03  0.17200000000E+03 0. -1.
         -6    1    1    2    0  501 -0.11147001666E+03 -0.27118891631E+02 -0.19135546168E+02  0.20763229042E+03  0.17200000000E+03 0.  1.
</event>
<event>
 4    1  0.3196149E-002  0.2613645E+03  0.7818608E-02  0.1106326E+00
         -2   -1    0    0    0  501 -0.00000000000E+00  0.00000000000E+00  0.18712311327E+03  0.18712311327E+03  0.00000000000E+00 0.  1.
          2   -1    0    0  502    0  0.00000000000E+00 -0.00000000000E+00 -0.43846300587E+03  0.43846300587E+03  0.00000000000E+00 0. -1.
          6    1    1    2  502    0  0.12809805861E+03  0.14939304351E+03 -0.25365047812E+03  0.36421142091E+03  0.17200000000E+03 0. -1.
         -6    1    1    2    0  501 -0.12809805861E+03 -0.14939304351E+03  0.23105855174E+01  0.26137469823E+03  0.17200000000E+03 0.  1.
</event>
<event>
 4    1  0.3196149E-002  0.3039611E+03  0.7818608E-02  0.1083277E+00
          2   -1    0    0  502    0  0.00000000000E+00  0.00000000000E+00  0.28983936520E+04  0.28983936520E+04  0.00000000000E+00 0. -1.
         -2   -1    0    0    0  501 -0.00000000000E+00 -0.00000000000E+00 -0.42014637386E+02  0.42014637386E+02  0.00000000000E+00 0.  1.
          6    1    1    2  502    0 -0.10927099461E+03 -0.22553973642E+03  0.70601189593E+03  0.76866450429E+03  0.17200000000E+03 0.  1.
         -6    1    1    2    0  501  0.10927099461E+03  0.22553973642E+03  0.21503671187E+04  0.21717437851E+04  0.17200000000E+03 0.  1.
</event>
<event>
 4    1  0.3196149E-002  0.2495200E+03  0.7818608E-02  0.1113609E+00
         -2   -1    0    0    0  501 -0.00000000000E+00  0.00000000000E+00  0.12015397667E+03  0.12015397667E+03  0.00000000000E+00 0.  1.
          2   -1    0    0  502    0  0.00000000000E+00 -0.00000000000E+00 -0.70782671557E+03  0.70782671557E+03  0.00000000000E+00 0. -1.
          6    1    1    2  502    0  0.17471946395E+03  0.46360994765E+02 -0.50813056373E+03  0.56608912966E+03  0.17200000000E+03 0.  1.
         -6    1    1    2    0  501 -0.17471946395E+03 -0.46360994765E+02 -0.79542175168E+02  0.26189156258E+03  0.17200000000E+03 0.  1.
</event>
<event>
 4    1  0.3196149E-002  0.1939011E+03  0.7818608E-02  0.1154989E+00
         -2   -1    0    0    0  501 -0.00000000000E+00  0.00000000000E+00  0.15650787405E+02  0.15650787405E+02  0.00000000000E+00 0.  1.
          2   -1    0    0  502    0  0.00000000000E+00 -0.00000000000E+00 -0.24123601603E+04  0.24123601603E+04  0.00000000000E+00 0. -1.
          6    1    1    2  502    0 -0.52954004107E+02 -0.72176910874E+02 -0.11198941180E+04  0.11365564080E+04  0.17200000000E+03 0.  1.
         -6    1    1    2    0  501  0.52954004107E+02  0.72176910874E+02 -0.12768152549E+04  0.12914545397E+04  0.17200000000E+03 0.  1.
</event>
<event>
 4    1  0.3196149E-002  0.3219037E+03  0.7818608E-02  0.1074777E+00
          1   -1    0    0  502    0  0.00000000000E+00  0.00000000000E+00  0.46775347659E+03  0.46775347659E+03  0.00000000000E+00 0. -1.
         -1   -1    0    0    0  501 -0.00000000000E+00 -0.00000000000E+00 -0.22760738456E+03  0.22760738456E+03  0.00000000000E+00 0.  1.
          6    1    1    2  502    0 -0.25200661479E+03  0.10261888331E+03  0.17688033557E+03  0.36729909097E+03  0.17200000000E+03 0. -1.
         -6    1    1    2    0  501  0.25200661479E+03 -0.10261888331E+03  0.63265756459E+02  0.32806177018E+03  0.17200000000E+03 0.  1.
</event>
<event>
 4    1  0.3196149E-002  0.2343881E+03  0.7818608E-02  0.1123589E+00
          1   -1    0    0  502    0  0.00000000000E+00  0.00000000000E+00  0.10695476885E+04  0.10695476885E+04  0.00000000000E+00 0. -1.
         -1   -1    0    0    0  501 -0.00000000000E+00 -0.00000000000E+00 -0.72267753381E+02  0.72267753381E+02  0.00000000000E+00 0.  1.
          6    1    1    2  502    0 -0.13361551295E+03  0.86606373382E+02  0.80567716665E+03  0.83907893912E+03  0.17200000000E+03 0. -1.
         -6    1    1    2    0  501  0.13361551295E+03 -0.86606373382E+02  0.19160276843E+03  0.30273650272E+03  0.17200000000E+03 0.  1.
</event>
<event>
 4    1  0.3196149E-002  0.9059782E+03  0.7818608E-02  0.9418139E-01
         -2   -1    0    0    0  501 -0.00000000000E+00  0.00000000000E+00  0.21737175539E+04  0.21737175539E+04  0.00000000000E+00 0.  1.
          2   -1    0    0  502    0  0.00000000000E+00 -0.00000000000E+00 -0.59643244014E+03  0.59643244014E+03  0.00000000000E+00 0. -1.
          6    1    1    2  502    0 -0.40736338834E+03 -0.79073861264E+03 -0.50330815046E+02  0.90737515649E+03  0.17200000000E+03 0. -1.
         -6    1    1    2    0  501  0.40736338834E+03  0.79073861264E+03  0.16276159288E+04  0.18627748375E+04  0.17200000000E+03 0.  1.
</event>
<event>
 4    1  0.3196149E-002  0.2095684E+03  0.7818608E-02  0.1141908E+00
         -2   -1    0    0    0  501 -0.00000000000E+00  0.00000000000E+00  0.87625273941E+02  0.87625273941E+02  0.00000000000E+00 0.  1.
          2   -1    0    0  502    0  0.00000000000E+00 -0.00000000000E+00 -0.50200207548E+03  0.50200207548E+03  0.00000000000E+00 0. -1.
          6    1    1    2  502    0  0.11494248711E+03  0.33513071531E+02 -0.19549790252E+03  0.28659785623E+03  0.17200000000E+03 0.  1.
         -6    1    1    2    0  501 -0.11494248711E+03 -0.33513071531E+02 -0.21887889902E+03  0.30302949319E+03  0.17200000000E+03 0.  1.
</event>
<event>
 4    1  0.3196149E-002  0.4072147E+03  0.7818608E-02  0.1041310E+00
          2   -1    0    0  502    0  0.00000000000E+00  0.00000000000E+00  0.12063459019E+04  0.12063459019E+04  0.00000000000E+00 0. -1.
         -2   -1    0    0    0  501 -0.00000000000E+00 -0.00000000000E+00 -0.31328133578E+03  0.31328133578E+03  0.00000000000E+00 0.  1.
          6    1    1    2  502    0  0.36329206352E+03  0.65258575369E+02  0.10157469930E+04  0.10943334769E+04  0.17200000000E+03 0. -1.
         -6    1    1    2    0  501 -0.36329206352E+03 -0.65258575369E+02 -0.12268242682E+03  0.42529376074E+03  0.17200000000E+03 0.  1.
</event>
<event>
 4    1  0.3196149E-002  0.2191023E+03  0.7818608E-02  0.1134554E+00
         -2   -1    0    0    0  501 -0.00000000000E+00  0.00000000000E+00  0.18325953217E+03  0.18325953217E+03  0.00000000000E+00 0.  1.
          2   -1    0    0  502    0  0.00000000000E+00 -0.00000000000E+00 -0.26403725838E+03  0.26403725838E+03  0.00000000000E+00 0. -1.
          6    1    1    2  502    0 -0.18197108283E+02 -0.13450166147E+03 -0.60247728152E+02  0.22723472542E+03  0.17200000000E+03 0. -1.
         -6    1    1    2    0  501  0.18197108283E+02  0.13450166147E+03 -0.20529998057E+02  0.22006206513E+03  0.17200000000E+03 0.  1.
</event>
<event>
 4    1  0.3196149E-002  0.2232285E+03  0.7818608E-02  0.1131499E+00
         -1   -1    0    0    0  501 -0.00000000000E+00  0.00000000000E+00  0.41214444589E+02  0.41214444589E+02  0.00000000000E+00 0.  1.
          1   -1    0    0  502    0  0.00000000000E+00 -0.00000000000E+00 -0.12177328229E+04  0.12177328229E+04  0.00000000000E+00 0. -1.
          6    1    1    2  502    0 -0.93491498451E+02 -0.10726740392E+03 -0.64136575006E+03  0.67910307139E+03  0.17200000000E+03 0. -1.
         -6    1    1    2    0  501  0.93491498451E+02  0.10726740392E+03 -0.53515262830E+03  0.57984419615E+03  0.17200000000E+03 0.  1.
</event>
<event>
 4    1  0.3196149E-002  0.2429395E+03  0.7818608E-02  0.1117850E+00
         -2   -1    0    0    0  501 -0.00000000000E+00  0.00000000000E+00  0.26470492877E+02  0.26470492877E+02  0.00000000000E+00 0.  1.
          2   -1    0    0  502    0  0.00000000000E+00 -0.00000000000E+00 -0.24581277850E+04  0.24581277850E+04  0.00000000000E+00 0. -1.
          6    1    1    2  502    0  0.67434957345E+02 -0.15775964790E+03 -0.15945839059E+04  0.16129840089E+04  0.17200000000E+03 0. -1.
         -6    1    1    2    0  501 -0.67434957345E+02  0.15775964790E+03 -0.83707338621E+03  0.87161426898E+03  0.17200000000E+03 0.  1.
</event>
<event>
 4    1  0.3196149E-002  0.2084943E+03  0.7818608E-02  0.1142764E+00
          3   -1    0    0  502    0  0.00000000000E+00  0.00000000000E+00  0.11194647215E+03  0.11194647215E+03  0.00000000000E+00 0. -1.
         -3   -1    0    0    0  501 -0.00000000000E+00 -0.00000000000E+00 -0.38872385781E+03  0.38872385781E+03  0.00000000000E+00 0.  1.
          6    1    1    2  502    0 -0.97335348067E+02 -0.66420674316E+02 -0.14656206942E+03  0.25485351901E+03  0.17200000000E+03 0. -1.
         -6    1    1    2    0  501  0.97335348067E+02  0.66420674316E+02 -0.13021531625E+03  0.24581681095E+03  0.17200000000E+03 0.  1.
</event>
<event>
 4    1  0.3196149E-002  0.5021096E+03  0.7818608E-02  0.1013230E+00
         -2   -1    0    0    0  501 -0.00000000000E+00  0.00000000000E+00  0.18790261974E+03  0.18790261974E+03  0.00000000000E+00 0.  1.
          2   -1    0    0  502    0  0.00000000000E+00 -0.00000000000E+00 -0.25900486224E+04  0.25900486224E+04  0.00000000000E+00 0. -1.
          6    1    1    2  502    0 -0.36595056820E+03  0.29767473784E+03 -0.21653545689E+04  0.22228077913E+04  0.17200000000E+03 0. -1.
         -6    1    1    2    0  501  0.36595056820E+03 -0.29767473784E+03 -0.23679143373E+03  0.55514345083E+03  0.17200000000E+03 0.  1.
</event>
<event>
 4    1  0.3196149E-002  0.1975096E+03  0.7818608E-02  0.1151857E+00
         -2   -1    0    0    0  501 -0.00000000000E+00  0.00000000000E+00  0.80397766295E+02  0.80397766295E+02  0.00000000000E+00 0.  1.
          2   -1    0    0  502    0  0.00000000000E+00 -0.00000000000E+00 -0.59678391613E+03  0.59678391613E+03  0.00000000000E+00 0. -1.
          6    1    1    2  502    0  0.64069205060E+02 -0.72946465462E+02 -0.40459336782E+03  0.45022865651E+03  0.17200000000E+03 0. -1.
         -6    1    1    2    0  501 -0.64069205060E+02  0.72946465462E+02 -0.11179278202E+03  0.22695302591E+03  0.17200000000E+03 0.  1.
</event>
<event>
 4    1  0.3196149E-002  0.1943018E+03  0.7818608E-02  0.1154638E+00
          1   -1    0    0  502    0  0.00000000000E+00  0.00000000000E+00  0.24777836004E+03  0.24777836004E+03  0.00000000000E+00 0. -1.
         -1   -1    0    0    0  501 -0.00000000000E+00 -0.00000000000E+00 -0.24216826679E+03  0.24216826679E+03  0.00000000000E+00 0.  1.
          6    1    1    2  502    0 -0.86928333462E+02 -0.24751636830E+02  0.15198210603E+03  0.24668145297E+03  0.17200000000E+03 0. -1.
         -6    1    1    2    0  501  0.86928333462E+02  0.24751636830E+02 -0.14637201278E+03  0.24326517385E+03  0.17200000000E+03 0.  1.
</event>
<event>
 4    1  0.3196149E-002  0.3739565E+03  0.7818608E-02  0.1053190E+00
         -1   -1    0    0    0  501 -0.00000000000E+00  0.00000000000E+00  0.96949914348E+02  0.96949914348E+02  0.00000000000E+00 0.  1.
          1   -1    0    0  502    0  0.00000000000E+00 -0.00000000000E+00 -0.25394943188E+04  0.25394943188E+04  0.00000000000E+00 0. -1.
          6    1    1    2  502    0 -0.33154976373E+03 -0.18282082807E+02 -0.20876972213E+04  0.21209250737E+04  0.17200000000E+03 0. -1.
         -6    1    1    2    0  501  0.33154976373E+03  0.18282082807E+02 -0.35484718316E+03  0.51551915947E+03  0.17200000000E+03 0.  1.
</event>
<event>
 4    1  0.3196149E-002  0.3545696E+03  0.7818608E-02  0.1060755E+00
          2   -1    0    0  502    0  0.00000000000E+00  0.00000000000E+00  0.11605508514E+04  0.11605508514E+04  0.00000000000E+00 0. -1.
         -2   -1    0    0    0  501 -0.00000000000E+00 -0.00000000000E+00 -0.13883087879E+03  0.13883087879E+03  0.00000000000E+00 0.  1.
          6    1    1    2  502    0 -0.30667264024E+03 -0.45689364806E+02  0.81539509421E+03  0.88915059804E+03  0.17200000000E+03 0. -1.
         -6    1    1    2    0  501  0.30667264024E+03  0.45689364806E+02  0.20632487838E+03  0.41023113213E+03  0.17200000000E+03 0.  1.
</event>
<event>
 4    1  0.3196149E-002  0.2054589E+03  0.7818608E-02  0.1145213E+00
         -2   -1    0    0    0  501 -0.00000000000E+00  0.00000000000E+00  0.13533113565E+04  0.13533113565E+04  0.00000000000E+00 0.  1.
          2   -1    0    0  502    0  0.00000000000E+00 -0.00000000000E+00 -0.35024906289E+02  0.35024906289E+02  0.00000000000E+00 0. -1.
          6    1    1    2  502    0 -0.10503072467E+03 -0.39973659397E+02  0.88876037879E+03  0.91219973552E+03  0.17200000000E+03 0.  1.
         -6    1    1    2    0  501  0.10503072467E+03  0.39973659397E+02  0.42952607138E+03  0.47613652723E+03  0.17200000000E+03 0. -1.
</event>
<event>
 4    1  0.3196149E-002  0.1910492E+03  0.7818608E-02  0.1157518E+00
         -2   -1    0    0    0  501 -0.00000000000E+00  0.00000000000E+00  0.34972441520E+02  0.34972441520E+02  0.00000000000E+00 0.  1.
          2   -1    0    0  502    0  0.00000000000E+00 -0.00000000000E+00 -0.27719889422E+04  0.27719889422E+04  0.00000000000E+00 0. -1.
          6    1    1    2  502    0  0.82075443960E+02 -0.13394147346E+02 -0.24767188609E+04  0.24840765080E+04  0.17200000000E+03 0. -1.
         -6    1    1    2    0  501 -0.82075443960E+02  0.13394147346E+02 -0.26029763973E+03  0.32288487566E+03  0.17200000000E+03 0.  1.
</event>
<event>
 4    1  0.3196149E-002  0.2857454E+03  0.7818608E-02  0.1092592E+00
         -2   -1    0    0    0  501 -0.00000000000E+00  0.00000000000E+00  0.33700666310E+02  0.33700666310E+02  0.00000000000E+00 0.  1.
          2   -1    0    0  502    0  0.00000000000E+00 -0.00000000000E+00 -0.33783293948E+04  0.33783293948E+04  0.00000000000E+00 0. -1.
          6    1    1    2  502    0  0.14801602302E+03  0.17365973330E+03 -0.25796139282E+04  0.25953917747E+04  0.17200000000E+03 0. -1.
         -6    1    1    2    0  501 -0.14801602302E+03 -0.17365973330E+03 -0.76501480036E+03  0.81663828640E+03  0.17200000000E+03 0.  1.
</event>
<event>
 4    1  0.3196149E-002  0.2300441E+03  0.7818608E-02  0.1126609E+00
         -2   -1    0    0    0  501 -0.00000000000E+00  0.00000000000E+00  0.69798548699E+02  0.69798548699E+02  0.00000000000E+00 0.  1.
          2   -1    0    0  502    0  0.00000000000E+00 -0.00000000000E+00 -0.80696068440E+03  0.80696068440E+03  0.00000000000E+00 0. -1.
          6    1    1    2  502    0 -0.15244694160E+03 -0.98099388331E+01 -0.47635654787E+03  0.52899514705E+03  0.17200000000E+03 0. -1.
         -6    1    1    2    0  501  0.15244694160E+03  0.98099388331E+01 -0.26080558783E+03  0.34776408605E+03  0.17200000000E+03 0.  1.
</event>
<event>
 4    1  0.3196149E-002  0.3143943E+03  0.7818608E-02  0.1078259E+00
         -1   -1    0    0    0  501 -0.00000000000E+00  0.00000000000E+00  0.82359934189E+02  0.82359934189E+02  0.00000000000E+00 0.  1.
          1   -1    0    0  502    0  0.00000000000E+00 -0.00000000000E+00 -0.14164828152E+04  0.14164828152E+04  0.00000000000E+00 0. -1.
          6    1    1    2  502    0  0.18404209169E+02 -0.26252821910E+03 -0.37418283666E+03  0.48872955302E+03  0.17200000000E+03 0. -1.
         -6    1    1    2    0  501 -0.18404209169E+02  0.26252821910E+03 -0.95994004432E+03  0.10101131963E+04  0.17200000000E+03 0. -1.
</event>
<event>
 4    1  0.3196149E-002  0.3357090E+03  0.7818608E-02  0.1068638E+00
         -1   -1    0    0    0  501 -0.00000000000E+00  0.00000000000E+00  0.11311555830E+03  0.11311555830E+03  0.00000000000E+00 0.  1.
          1   -1    0    0  502    0  0.00000000000E+00 -0.00000000000E+00 -0.11945067343E+04  0.11945067343E+04  0.00000000000E+00 0. -1.
          6    1    1    2  502    0 -0.18462379927E+03 -0.22142844445E+03 -0.80700320405E+03  0.87404500720E+03  0.17200000000E+03 0. -1.
         -6    1    1    2    0  501  0.18462379927E+03  0.22142844445E+03 -0.27438797194E+03  0.43357728539E+03  0.17200000000E+03 0.  1.
</event>
<event>
 4    1  0.3196149E-002  0.4543929E+03  0.7818608E-02  0.1026420E+00
          2   -1    0    0  502    0  0.00000000000E+00  0.00000000000E+00  0.17502805723E+04  0.17502805723E+04  0.00000000000E+00 0. -1.
         -2   -1    0    0    0  501 -0.00000000000E+00 -0.00000000000E+00 -0.12737141941E+03  0.12737141941E+03  0.00000000000E+00 0.  1.
          6    1    1    2  502    0  0.40793973918E+03 -0.10234300685E+03  0.55633304439E+03  0.71831704569E+03  0.17200000000E+03 0. -1.
         -6    1    1    2    0  501 -0.40793973918E+03  0.10234300685E+03  0.10665761085E+04  0.11593349461E+04  0.17200000000E+03 0.  1.
</event>
<event>
 4    1  0.3196149E-002  0.2404585E+03  0.7818608E-02  0.1119488E+00
         -1   -1    0    0    0  501 -0.00000000000E+00  0.00000000000E+00  0.17962026978E+02  0.17962026978E+02  0.00000000000E+00 0.  1.
          1   -1    0    0  502    0  0.00000000000E+00 -0.00000000000E+00 -0.41496752980E+04  0.41496752980E+04  0.00000000000E+00 0. -1.
          6    1    1    2  502    0 -0.64280789348E+01  0.16791355208E+03 -0.30526932435E+04  0.30621489710E+04  0.17200000000E+03 0. -1.
         -6    1    1    2    0  501  0.64280789348E+01 -0.16791355208E+03 -0.10790200275E+04  0.11054883541E+04  0.17200000000E+03 0.  1.
</event>
<event>
 4    1  0.3196149E-002  0.2036648E+03  0.7818608E-02  0.1146683E+00
          2   -1    0    0  502    0  0.00000000000E+00  0.00000000000E+00  0.19919448447E+04  0.19919448447E+04  0.00000000000E+00 0. -1.
         -2   -1    0    0    0  501 -0.00000000000E+00 -0.00000000000E+00 -0.21845786582E+02  0.21845786582E+02  0.00000000000E+00 0.  1.
          6    1    1    2  502    0  0.25784726208E+01  0.10903535131E+03  0.12028590716E+04  0.12199792221E+04  0.17200000000E+03 0. -1.
         -6    1    1    2    0  501 -0.25784726208E+01 -0.10903535131E+03  0.76723998660E+03  0.79381140921E+03  0.17200000000E+03 0.  1.
</event>
<event>
 4    1  0.3196149E-002  0.2311465E+03  0.7818608E-02  0.1125835E+00
         -3   -1    0    0    0  501 -0.00000000000E+00  0.00000000000E+00  0.32592251705E+02  0.32592251705E+02  0.00000000000E+00 0.  1.
          3   -1    0    0  502    0  0.00000000000E+00 -0.00000000000E+00 -0.16408634087E+04  0.16408634087E+04  0.00000000000E+00 0. -1.
          6    1    1    2  502    0 -0.15405919496E+03  0.10510423433E+02 -0.82990576639E+03  0.86149421684E+03  0.17200000000E+03 0. -1.
         -6    1    1    2    0  501  0.15405919496E+03 -0.10510423433E+02 -0.77836539065E+03  0.81196144362E+03  0.17200000000E+03 0.  1.
</event>
<event>
 4    1  0.3196149E-002  0.4018247E+03  0.7818608E-02  0.1043150E+00
          1   -1    0    0  502    0  0.00000000000E+00  0.00000000000E+00  0.76262435060E+03  0.76262435060E+03  0.00000000000E+00 0. -1.
         -1   -1    0    0    0  501 -0.00000000000E+00 -0.00000000000E+00 -0.31455324776E+03  0.31455324776E+03  0.00000000000E+00 0.  1.
          6    1    1    2  502    0  0.29108368739E+03 -0.21713915124E+03  0.53198269884E+03  0.66668487003E+03  0.17200000000E+03 0. -1.
         -6    1    1    2    0  501 -0.29108368739E+03  0.21713915124E+03 -0.83911596006E+02  0.41049272833E+03  0.17200000000E+03 0.  1.
</event>
<event>
 4    1  0.3196149E-002  0.1741853E+03  0.7818608E-02  0.1173552E+00
         -2   -1    0    0    0  501 -0.00000000000E+00  0.00000000000E+00  0.79027127198E+02  0.79027127198E+02  0.00000000000E+00 0.  1.
          2   -1    0    0  502    0  0.00000000000E+00 -0.00000000000E+00 -0.62602133240E+03  0.62602133240E+03  0.00000000000E+00 0. -1.
          6    1    1    2  502    0 -0.82224996719E+01 -0.26247278842E+02 -0.49272108597E+03  0.52260367173E+03  0.17200000000E+03 0. -1.
         -6    1    1    2    0  501  0.82224996719E+01  0.26247278842E+02 -0.54273119228E+02  0.18244478786E+03  0.17200000000E+03 0.  1.
</event>
<event>
 4    1  0.3196149E-002  0.3611054E+03  0.7818608E-02  0.1058147E+00
          3   -1    0    0  502    0  0.00000000000E+00  0.00000000000E+00  0.41986649101E+03  0.41986649101E+03  0.00000000000E+00 0. -1.
         -3   -1    0    0    0  501 -0.00000000000E+00 -0.00000000000E+00 -0.48315219736E+03  0.48315219736E+03  0.00000000000E+00 0.  1.
          6    1    1    2  502    0 -0.12464973678E+03 -0.29201973652E+03  0.23820894453E+03  0.43259748572E+03  0.17200000000E+03 0. -1.
         -6    1    1    2    0  501  0.12464973678E+03  0.29201973652E+03 -0.30149465089E+03  0.47042120265E+03  0.17200000000E+03 0.  1.
</event>
<event>
 4    1  0.3196149E-002  0.2556393E+03  0.7818608E-02  0.1109792E+00
         -1   -1    0    0    0  501 -0.00000000000E+00  0.00000000000E+00  0.28929693083E+03  0.28929693083E+03  0.00000000000E+00 0.  1.
          1   -1    0    0  502    0  0.00000000000E+00 -0.00000000000E+00 -0.10532097144E+04  0.10532097144E+04  0.00000000000E+00 0. -1.
          6    1    1    2  502    0  0.18902040732E+03  0.62230985192E+01 -0.97688348791E+03  0.10097785848E+04  0.17200000000E+03 0. -1.
         -6    1    1    2    0  501 -0.18902040732E+03 -0.62230985192E+01  0.21297070430E+03  0.33272806048E+03  0.17200000000E+03 0.  1.
</event>
<event>
 4    1  0.3196149E-002  0.1754574E+03  0.7818608E-02  0.1172273E+00
         -1   -1    0    0    0  501 -0.00000000000E+00  0.00000000000E+00  0.72230793800E+02  0.72230793800E+02  0.00000000000E+00 0.  1.
          1   -1    0    0  502    0  0.00000000000E+00 -0.00000000000E+00 -0.43500565490E+03  0.43500565490E+03  0.00000000000E+00 0. -1.
          6    1    1    2  502    0  0.21461875727E+01  0.34593307156E+02 -0.14531878429E+03  0.22782197455E+03  0.17200000000E+03 0. -1.
         -6    1    1    2    0  501 -0.21461875727E+01 -0.34593307156E+02 -0.21745607682E+03  0.27941447415E+03  0.17200000000E+03 0. -1.
</event>
<event>
 4    1  0.3196149E-002  0.2647125E+03  0.7818608E-02  0.1104345E+00
         -2   -1    0    0    0  501 -0.00000000000E+00  0.00000000000E+00  0.11706607454E+03  0.11706607454E+03  0.00000000000E+00 0.  1.
          2   -1    0    0  502    0  0.00000000000E+00 -0.00000000000E+00 -0.13612206033E+04  0.13612206033E+04  0.00000000000E+00 0. -1.
          6    1    1    2  502    0  0.15348451124E+03  0.13011990822E+03 -0.11753332690E+04  0.12047742440E+04  0.17200000000E+03 0. -1.
         -6    1    1    2    0  501 -0.15348451124E+03 -0.13011990822E+03 -0.68821259814E+02  0.27351243392E+03  0.17200000000E+03 0.  1.
</event>
<event>
 4    1  0.3196149E-002  0.1890816E+03  0.7818608E-02  0.1159292E+00
          1   -1    0    0  502    0  0.00000000000E+00  0.00000000000E+00  0.87787530943E+03  0.87787530943E+03  0.00000000000E+00 0. -1.
         -1   -1    0    0    0  501 -0.00000000000E+00 -0.00000000000E+00 -0.40760550081E+02  0.40760550081E+02  0.00000000000E+00 0.  1.
          6    1    1    2  502    0  0.25450119300E+01 -0.78494404893E+02  0.40507468777E+03  0.44703171180E+03  0.17200000000E+03 0. -1.
         -6    1    1    2    0  501 -0.25450119300E+01  0.78494404893E+02  0.43204007158E+03  0.47160414771E+03  0.17200000000E+03 0. -1.
</event>
<event>
 4    1  0.3196149E-002  0.1844159E+03  0.7818608E-02  0.1163596E+00
          1   -1    0    0  502    0  0.00000000000E+00  0.00000000000E+00  0.68929248560E+03  0.68929248560E+03  0.00000000000E+00 0. -1.
         -1   -1    0    0    0  501 -0.00000000000E+00 -0.00000000000E+00 -0.85864954686E+02  0.85864954686E+02  0.00000000000E+00 0.  1.
          6    1    1    2  502    0 -0.65818747075E+02 -0.96504568332E+01  0.55449841462E+03  0.58436095917E+03  0.17200000000E+03 0. -1.
         -6    1    1    2    0  501  0.65818747075E+02  0.96504568332E+01  0.48929116286E+02  0.19079648111E+03  0.17200000000E+03 0.  1.
</event>
<event>
 4    1  0.3196149E-002  0.3892100E+03  0.7818608E-02  0.1047581E+00
         -2   -1    0    0    0  501 -0.00000000000E+00  0.00000000000E+00  0.11238567930E+03  0.11238567930E+03  0.00000000000E+00 0.  1.
          2   -1    0    0  502    0  0.00000000000E+00 -0.00000000000E+00 -0.14866744542E+04  0.14866744542E+04  0.00000000000E+00 0. -1.
          6    1    1    2  502    0  0.33056013710E+03 -0.11238517739E+03 -0.93142261181E+03  0.10094714033E+04  0.17200000000E+03 0. -1.
         -6    1    1    2    0  501 -0.33056013710E+03  0.11238517739E+03 -0.44286616309E+03  0.58958873018E+03  0.17200000000E+03 0.  1.
</event>
<event>
 4    1  0.3196149E-002  0.1888677E+03  0.7818608E-02  0.1159487E+00
          1   -1    0    0  502    0  0.00000000000E+00  0.00000000000E+00  0.89497106817E+03  0.89497106817E+03  0.00000000000E+00 0. -1.
         -1   -1    0    0    0  501 -0.00000000000E+00 -0.00000000000E+00 -0.53871487068E+02  0.53871487068E+02  0.00000000000E+00 0.  1.
          6    1    1    2  502    0 -0.64099970879E+02  0.44476969080E+02  0.17857464107E+03  0.25992289141E+03  0.17200000000E+03 0.  1.
         -6    1    1    2    0  501  0.64099970879E+02 -0.44476969080E+02  0.66252494004E+03  0.68891966383E+03  0.17200000000E+03 0. -1.
</event>
<event>
 4    1  0.3196149E-002  0.2647977E+03  0.7818608E-02  0.1104294E+00
         -2   -1    0    0    0  501 -0.00000000000E+00  0.00000000000E+00  0.33596737551E+03  0.33596737551E+03  0.00000000000E+00 0.  1.
          2   -1    0    0  502    0  0.00000000000E+00 -0.00000000000E+00 -0.21299296967E+03  0.21299296967E+03  0.00000000000E+00 0. -1.
          6    1    1    2  502    0 -0.44652601103E+02  0.19631603062E+03  0.22538838049E+02  0.26575522175E+03  0.17200000000E+03 0. -1.
         -6    1    1    2    0  501  0.44652601103E+02 -0.19631603062E+03  0.10043556779E+03  0.28320512344E+03  0.17200000000E+03 0.  1.
</event>
<event>
 4    1  0.3196149E-002  0.1961810E+03  0.7818608E-02  0.1153002E+00
         -1   -1    0    0    0  501 -0.00000000000E+00  0.00000000000E+00  0.23191298490E+02  0.23191298490E+02  0.00000000000E+00 0.  1.
          1   -1    0    0  502    0  0.00000000000E+00 -0.00000000000E+00 -0.17050956626E+04  0.17050956626E+04  0.00000000000E+00 0. -1.
          6    1    1    2  502    0 -0.37583842264E+02  0.86547244290E+02 -0.98219473730E+03  0.10015954636E+04  0.17200000000E+03 0. -1.
         -6    1    1    2    0  501  0.37583842264E+02 -0.86547244290E+02 -0.69970962679E+03  0.72669149749E+03  0.17200000000E+03 0.  1.
</event>
<event>
 4    1  0.3196149E-002  0.3228662E+03  0.7818608E-02  0.1074338E+00
         -1   -1    0    0    0  501 -0.00000000000E+00  0.00000000000E+00  0.68302710071E+02  0.68302710071E+02  0.00000000000E+00 0.  1.
          1   -1    0    0  502    0  0.00000000000E+00 -0.00000000000E+00 -0.17844659763E+04  0.17844659763E+04  0.00000000000E+00 0. -1.
          6    1    1    2  502    0  0.10643425202E+03 -0.25165512700E+03 -0.12105202671E+04  0.12528375274E+04  0.17200000000E+03 0. -1.
         -6    1    1    2    0  501 -0.10643425202E+03  0.25165512700E+03 -0.50564299904E+03  0.59993115890E+03  0.17200000000E+03 0.  1.
</event>
<event>
 4    1  0.3196149E-002  0.2103932E+03  0.7818608E-02  0.1141255E+00
         -2   -1    0    0    0  501 -0.00000000000E+00  0.00000000000E+00  0.52304729986E+02  0.52304729986E+02  0.00000000000E+00 0.  1.
          2   -1    0    0  502    0  0.00000000000E+00 -0.00000000000E+00 -0.11250076878E+04  0.11250076878E+04  0.00000000000E+00 0. -1.
          6    1    1    2  502    0 -0.99524052194E+02  0.69110364935E+02 -0.24335551483E+03  0.32169424320E+03  0.17200000000E+03 0.  1.
         -6    1    1    2    0  501  0.99524052194E+02 -0.69110364935E+02 -0.82934744298E+03  0.85561817459E+03  0.17200000000E+03 0.  1.
</event>
<event>
 4    1  0.3196149E-002  0.1985574E+03  0.7818608E-02  0.1150962E+00
          1   -1    0    0  502    0  0.00000000000E+00  0.00000000000E+00  0.14295145234E+04  0.14295145234E+04  0.00000000000E+00 0. -1.
         -1   -1    0    0    0  501 -0.00000000000E+00 -0.00000000000E+00 -0.31257434352E+02  0.31257434352E+02  0.00000000000E+00 0.  1.
          6    1    1    2  502    0  0.38408172586E+02  0.91465035540E+02  0.44858206994E+03  0.49056183496E+03  0.17200000000E+03 0. -1.
         -6    1    1    2    0  501 -0.38408172586E+02 -0.91465035540E+02  0.94967501907E+03  0.97021012275E+03  0.17200000000E+03 0.  1.
</event>
<event>
 4    1  0.3196149E-002  0.2183123E+03  0.7818608E-02  0.1135148E+00
         -1   -1    0    0    0  501 -0.00000000000E+00  0.00000000000E+00  0.21088864549E+03  0.21088864549E+03  0.00000000000E+00 0.  1.
          1   -1    0    0  502    0  0.00000000000E+00 -0.00000000000E+00 -0.22756704593E+03  0.22756704593E+03  0.00000000000E+00 0. -1.
          6    1    1    2  502    0 -0.11306052173E+03 -0.72757005747E+02  0.98685540447E+01  0.21853524159E+03  0.17200000000E+03 0.  1.
         -6    1    1    2    0  501  0.11306052173E+03  0.72757005747E+02 -0.26546954487E+02  0.21992044982E+03  0.17200000000E+03 0.  1.
</event>
<event>
 4    1  0.3196149E-002  0.2309542E+03  0.7818608E-02  0.1125970E+00
         -4   -1    0    0    0  501 -0.00000000000E+00  0.00000000000E+00  0.52725688716E+03  0.52725688716E+03  0.00000000000E+00 0.  1.
          4   -1    0    0  502    0  0.00000000000E+00 -0.00000000000E+00 -0.26760402581E+03  0.26760402581E+03  0.00000000000E+00 0. -1.
          6    1    1    2  502    0 -0.96542113703E+02 -0.12014759215E+03 -0.18360511341E+03  0.29504349050E+03  0.17200000000E+03 0. -1.
         -6    1    1    2    0  501  0.96542113703E+02  0.12014759215E+03  0.44325797476E+03  0.49981742247E+03  0.17200000000E+03 0.  1.
</event>
<event>
 4    1  0.3196149E-002  0.1880754E+03  0.7818608E-02  0.1160209E+00
         -1   -1    0    0    0  501 -0.00000000000E+00  0.00000000000E+00  0.20740172454E+02  0.20740172454E+02  0.00000000000E+00 0.  1.
          1   -1    0    0  502    0  0.00000000000E+00 -0.00000000000E+00 -0.22722094279E+04  0.22722094279E+04  0.00000000000E+00 0. -1.
          6    1    1    2  502    0  0.61574645494E+02  0.44686814714E+02 -0.55317483862E+03  0.58427283905E+03  0.17200000000E+03 0.  1.
         -6    1    1    2    0  501 -0.61574645494E+02 -0.44686814714E+02 -0.16982944168E+04  0.17086767613E+04  0.17200000000E+03 0. -1.
</event>
<event>
 4    1  0.3196149E-002  0.3227743E+03  0.7818608E-02  0.1074380E+00
          2   -1    0    0  502    0  0.00000000000E+00  0.00000000000E+00  0.23652933377E+03  0.23652933377E+03  0.00000000000E+00 0. -1.
         -2   -1    0    0    0  501 -0.00000000000E+00 -0.00000000000E+00 -0.44047300667E+03  0.44047300667E+03  0.00000000000E+00 0.  1.
          6    1    1    2  502    0 -0.46496781362E+02  0.26914180581E+03 -0.10067697961E+03  0.33811110088E+03  0.17200000000E+03 0. -1.
         -6    1    1    2    0  501  0.46496781362E+02 -0.26914180581E+03 -0.10326669328E+03  0.33889123956E+03  0.17200000000E+03 0.  1.
</event>
<event>
 4    1  0.3196149E-002  0.2580536E+03  0.7818608E-02  0.1108318E+00
         -1   -1    0    0    0  501 -0.00000000000E+00  0.00000000000E+00  0.17501070447E+03  0.17501070447E+03  0.00000000000E+00 0.  1.
          1   -1    0    0  502    0  0.00000000000E+00 -0.00000000000E+00 -0.60324559034E+03  0.60324559034E+03  0.00000000000E+00 0. -1.
          6    1    1    2  502    0  0.74957311692E+01 -0.19222772715E+03 -0.45057298746E+03  0.51923761622E+03  0.17200000000E+03 0. -1.
         -6    1    1    2    0  501 -0.74957311692E+01  0.19222772715E+03  0.22338101588E+02  0.25901867858E+03  0.17200000000E+03 0.  1.
</event>
<event>
 4    1  0.3196149E-002  0.1922512E+03  0.7818608E-02  0.1156446E+00
          1   -1    0    0  502    0  0.00000000000E+00  0.00000000000E+00  0.15310606259E+03  0.15310606259E+03  0.00000000000E+00 0. -1.
         -1   -1    0    0    0  501 -0.00000000000E+00 -0.00000000000E+00 -0.69527646898E+03  0.69527646898E+03  0.00000000000E+00 0.  1.
          6    1    1    2  502    0  0.75821552168E+02 -0.40343656304E+02  0.71642772861E+02  0.20516628690E+03  0.17200000000E+03 0. -1.
         -6    1    1    2    0  501 -0.75821552168E+02  0.40343656304E+02 -0.61381317925E+03  0.64321624467E+03  0.17200000000E+03 0.  1.
</event>
<event>
 4    1  0.3196149E-002  0.2170195E+03  0.7818608E-02  0.1136125E+00
         -2   -1    0    0    0  501 -0.00000000000E+00  0.00000000000E+00  0.44849699070E+02  0.44849699070E+02  0.00000000000E+00 0.  1.
          2   -1    0    0  502    0  0.00000000000E+00 -0.00000000000E+00 -0.11243154764E+04  0.11243154764E+04  0.00000000000E+00 0. -1.
          6    1    1    2  502    0 -0.13233652422E+03 -0.70583681745E+00 -0.68990794813E+03  0.72323608230E+03  0.17200000000E+03 0. -1.
         -6    1    1    2    0  501  0.13233652422E+03  0.70583681745E+00 -0.38955782924E+03  0.44592909321E+03  0.17200000000E+03 0.  1.
</event>
<event>
 4    1  0.3196149E-002  0.1855502E+03  0.7818608E-02  0.1162537E+00
         -2   -1    0    0    0  501 -0.00000000000E+00  0.00000000000E+00  0.14205133873E+03  0.14205133873E+03  0.00000000000E+00 0.  1.
          2   -1    0    0  502    0  0.00000000000E+00 -0.00000000000E+00 -0.34615035648E+03  0.34615035648E+03  0.00000000000E+00 0. -1.
          6    1    1    2  502    0  0.33281003729E+02  0.61132950224E+02  0.31608887071E+02  0.18822323064E+03  0.17200000000E+03 0. -1.
         -6    1    1    2    0  501 -0.33281003729E+02 -0.61132950224E+02 -0.23570790482E+03  0.29997846457E+03  0.17200000000E+03 0. -1.
</event>
<event>
 4    1  0.3196149E-002  0.1844675E+03  0.7818608E-02  0.1163548E+00
         -3   -1    0    0    0  501 -0.00000000000E+00  0.00000000000E+00  0.68131906299E+02  0.68131906299E+02  0.00000000000E+00 0.  1.
          3   -1    0    0  502    0  0.00000000000E+00 -0.00000000000E+00 -0.88122294880E+03  0.88122294880E+03  0.00000000000E+00 0. -1.
          6    1    1    2  502    0 -0.40679143895E+02  0.52815250054E+02 -0.71898092294E+03  0.74226801827E+03  0.17200000000E+03 0. -1.
         -6    1    1    2    0  501  0.40679143895E+02 -0.52815250054E+02 -0.94110119559E+02  0.20708683683E+03  0.17200000000E+03 0.  1.
</event>
<event>
 4    1  0.3196149E-002  0.3027655E+03  0.7818608E-02  0.1083866E+00
         -2   -1    0    0    0  501 -0.00000000000E+00  0.00000000000E+00  0.10368542027E+03  0.10368542027E+03  0.00000000000E+00 0.  1.
          2   -1    0    0  502    0  0.00000000000E+00 -0.00000000000E+00 -0.88619070982E+03  0.88619070982E+03  0.00000000000E+00 0. -1.
          6    1    1    2  502    0  0.53620875667E+02  0.24332637331E+03 -0.41536779804E+03  0.51400129368E+03  0.17200000000E+03 0.  1.
         -6    1    1    2    0  501 -0.53620875667E+02 -0.24332637331E+03 -0.36713749151E+03  0.47587483641E+03  0.17200000000E+03 0. -1.
</event>
<event>
 4    1  0.3196149E-002  0.3836410E+03  0.7818608E-02  0.1049596E+00
         -2   -1    0    0    0  501 -0.00000000000E+00  0.00000000000E+00  0.16966474482E+03  0.16966474482E+03  0.00000000000E+00 0.  1.
          2   -1    0    0  502    0  0.00000000000E+00 -0.00000000000E+00 -0.93588865903E+03  0.93588865903E+03  0.00000000000E+00 0. -1.
          6    1    1    2  502    0  0.31218467940E+03 -0.14190532110E+03 -0.53256345099E+03  0.65635678068E+03  0.17200000000E+03 0.  1.
         -6    1    1    2    0  501 -0.31218467940E+03  0.14190532110E+03 -0.23366046321E+03  0.44919662318E+03  0.17200000000E+03 0.  1.
</event>
<event>
 4    1  0.3196149E-002  0.3561910E+03  0.7818608E-02  0.1060102E+00
         -2   -1    0    0    0  501 -0.00000000000E+00  0.00000000000E+00  0.90912431299E+03  0.90912431299E+03  0.00000000000E+00 0.  1.
          2   -1    0    0  502    0  0.00000000000E+00 -0.00000000000E+00 -0.20420387776E+03  0.20420387776E+03  0.00000000000E+00 0. -1.
          6    1    1    2  502    0  0.13877706139E+03  0.27933668909E+03  0.39243731657E+02  0.35834638148E+03  0.17200000000E+03 0. -1.
         -6    1    1    2    0  501 -0.13877706139E+03 -0.27933668909E+03  0.66567670357E+03  0.75498180927E+03  0.17200000000E+03 0.  1.
</event>
<event>
 4    1  0.3196149E-002  0.3513509E+03  0.7818608E-02  0.1062062E+00
         -4   -1    0    0    0  501 -0.00000000000E+00  0.00000000000E+00  0.17555687919E+04  0.17555687919E+04  0.00000000000E+00 0.  1.
          4   -1    0    0  502    0  0.00000000000E+00 -0.00000000000E+00 -0.94261993569E+02  0.94261993569E+02  0.00000000000E+00 0. -1.
          6    1    1    2  502    0  0.62791735326E+02  0.29986768698E+03  0.36449300534E+03  0.50626335307E+03  0.17200000000E+03 0. -1.
         -6    1    1    2    0  501 -0.62791735326E+02 -0.29986768698E+03  0.12968137930E+04  0.13435674324E+04  0.17200000000E+03 0.  1.
</event>
<event>
 4    1  0.3196149E-002  0.4824378E+03  0.7818608E-02  0.1018467E+00
         -2   -1    0    0    0  501 -0.00000000000E+00  0.00000000000E+00  0.19417458741E+03  0.19417458741E+03  0.00000000000E+00 0.  1.
          2   -1    0    0  502    0  0.00000000000E+00 -0.00000000000E+00 -0.12785843034E+04  0.12785843034E+04  0.00000000000E+00 0. -1.
          6    1    1    2  502    0 -0.97414521568E+02  0.44008256799E+03 -0.35807714928E+03  0.60080404501E+03  0.17200000000E+03 0. -1.
         -6    1    1    2    0  501  0.97414521568E+02 -0.44008256799E+03 -0.72633256674E+03  0.87195484583E+03  0.17200000000E+03 0.  1.
</event>
<event>
 4    1  0.3196149E-002  0.1817914E+03  0.7818608E-02  0.1166081E+00
         -4   -1    0    0    0  501 -0.00000000000E+00  0.00000000000E+00  0.11746703522E+03  0.11746703522E+03  0.00000000000E+00 0.  1.
          4   -1    0    0  502    0  0.00000000000E+00 -0.00000000000E+00 -0.49861150540E+03  0.49861150540E+03  0.00000000000E+00 0. -1.
          6    1    1    2  502    0  0.45155420017E+02  0.37750407982E+02  0.12769686853E+02  0.18223932112E+03  0.17200000000E+03 0.  1.
         -6    1    1    2    0  501 -0.45155420017E+02 -0.37750407982E+02 -0.39391415704E+03  0.43383921950E+03  0.17200000000E+03 0. -1.
</event>
<event>
 4    1  0.3196149E-002  0.2348368E+03  0.7818608E-02  0.1123281E+00
         -2   -1    0    0    0  501 -0.00000000000E+00  0.00000000000E+00  0.17393561807E+03  0.17393561807E+03  0.00000000000E+00 0.  1.
          2   -1    0    0  502    0  0.00000000000E+00 -0.00000000000E+00 -0.60940496121E+03  0.60940496121E+03  0.00000000000E+00 0. -1.
          6    1    1    2  502    0  0.37334912990E+02 -0.15546843946E+03 -0.48901240188E+03  0.54247715214E+03  0.17200000000E+03 0. -1.
         -6    1    1    2    0  501 -0.37334912990E+02  0.15546843946E+03  0.53543058739E+02  0.24086342714E+03  0.17200000000E+03 0.  1.
</event>
<event>
 4    1  0.3196149E-002  0.4859403E+03  0.7818608E-02  0.1017515E+00
         -2   -1    0    0    0  501 -0.00000000000E+00  0.00000000000E+00  0.14992945317E+04  0.14992945317E+04  0.00000000000E+00 0.  1.
          2   -1    0    0  502    0  0.00000000000E+00 -0.00000000000E+00 -0.59431557984E+03  0.59431557984E+03  0.00000000000E+00 0. -1.
          6    1    1    2  502    0  0.38349142177E+03  0.24390234201E+03 -0.44495295864E+03  0.65887871298E+03  0.17200000000E+03 0. -1.
         -6    1    1    2    0  501 -0.38349142177E+03 -0.24390234201E+03  0.13499319105E+04  0.14347313986E+04  0.17200000000E+03 0.  1.
</event>
<event>
 4    1  0.3196149E-002  0.3553747E+03  0.7818608E-02  0.1060430E+00
         -1   -1    0    0    0  501 -0.00000000000E+00  0.00000000000E+00  0.32190554526E+03  0.32190554526E+03  0.00000000000E+00 0.  1.
          1   -1    0    0  502    0  0.00000000000E+00 -0.00000000000E+00 -0.49165215424E+03  0.49165215424E+03  0.00000000000E+00 0. -1.
          6    1    1    2  502    0  0.15297931378E+03  0.27074800397E+03 -0.26771127071E+03  0.44492749585E+03  0.17200000000E+03 0. -1.
         -6    1    1    2    0  501 -0.15297931378E+03 -0.27074800397E+03  0.97964661722E+02  0.36863020365E+03  0.17200000000E+03 0.  1.
</event>
<event>
 4    1  0.3196149E-002  0.2389850E+03  0.7818608E-02  0.1120471E+00
         -2   -1    0    0    0  501 -0.00000000000E+00  0.00000000000E+00  0.11868576836E+03  0.11868576836E+03  0.00000000000E+00 0.  1.
          2   -1    0    0  502    0  0.00000000000E+00 -0.00000000000E+00 -0.92679546589E+03  0.92679546589E+03  0.00000000000E+00 0. -1.
          6    1    1    2  502    0 -0.16389663381E+03  0.25840588821E+02 -0.76651096729E+03  0.80290279958E+03  0.17200000000E+03 0. -1.
         -6    1    1    2    0  501  0.16389663381E+03 -0.25840588821E+02 -0.41598730246E+02  0.24257843466E+03  0.17200000000E+03 0.  1.
</event>
<event>
 4    1  0.3196149E-002  0.3241981E+03  0.7818608E-02  0.1073733E+00
          1   -1    0    0  502    0  0.00000000000E+00  0.00000000000E+00  0.92550334717E+03  0.92550334717E+03  0.00000000000E+00 0. -1.
         -1   -1    0    0    0  501 -0.00000000000E+00 -0.00000000000E+00 -0.26332618902E+03  0.26332618902E+03  0.00000000000E+00 0.  1.
          6    1    1    2  502    0  0.12660833998E+03 -0.24390724936E+03  0.77936178658E+03  0.84410260776E+03  0.17200000000E+03 0. -1.
         -6    1    1    2    0  501 -0.12660833998E+03  0.24390724936E+03 -0.11718462843E+03  0.34472692843E+03  0.17200000000E+03 0.  1.
</event>
<event>
 4    1  0.3196149E-002  0.2646455E+03  0.7818608E-02  0.1104384E+00
          2   -1    0    0  502    0  0.00000000000E+00  0.00000000000E+00  0.28764478009E+03  0.28764478009E+03  0.00000000000E+00 0. -1.
         -2   -1    0    0    0  501 -0.00000000000E+00 -0.00000000000E+00 -0.24350459390E+03  0.24350459390E+03  0.00000000000E+00 0.  1.
          6    1    1    2  502    0 -0.78863000993E+02  0.18502401050E+03  0.19702246698E+02  0.26537791150E+03  0.17200000000E+03 0. -1.
         -6    1    1    2    0  501  0.78863000993E+02 -0.18502401050E+03  0.24437939495E+02  0.26577146249E+03  0.17200000000E+03 0. -1.
</event>
<event>
 4    1  0.3196149E-002  0.1829164E+03  0.7818608E-02  0.1165010E+00
          2   -1    0    0  502    0  0.00000000000E+00  0.00000000000E+00  0.16576462943E+04  0.16576462943E+04  0.00000000000E+00 0. -1.
         -2   -1    0    0    0  501 -0.00000000000E+00 -0.00000000000E+00 -0.22606543802E+02  0.22606543802E+02  0.00000000000E+00 0.  1.
          6    1    1    2  502    0  0.56193178371E+01  0.61990455429E+02  0.54251621537E+03  0.57252269583E+03  0.17200000000E+03 0.  1.
         -6    1    1    2    0  501 -0.56193178371E+01 -0.61990455429E+02  0.10925235351E+04  0.11077301422E+04  0.17200000000E+03 0. -1.
</event>
<event>
 4    1  0.3196149E-002  0.2298754E+03  0.7818608E-02  0.1126727E+00
         -2   -1    0    0    0  501 -0.00000000000E+00  0.00000000000E+00  0.24642388880E+02  0.24642388880E+02  0.00000000000E+00 0.  1.
          2   -1    0    0  502    0  0.00000000000E+00 -0.00000000000E+00 -0.22120757826E+04  0.22120757826E+04  0.00000000000E+00 0. -1.
          6    1    1    2  502    0 -0.88252247129E+02 -0.12437942000E+03 -0.12893555592E+04  0.13096871601E+04  0.17200000000E+03 0. -1.
         -6    1    1    2    0  501  0.88252247129E+02  0.12437942000E+03 -0.89807783459E+03  0.92703101146E+03  0.17200000000E+03 0. -1.
</event>
<event>
 4    1  0.3196149E-002  0.1862310E+03  0.7818608E-02  0.1161905E+00
          1   -1    0    0  502    0  0.00000000000E+00  0.00000000000E+00  0.65361028572E+03  0.65361028572E+03  0.00000000000E+00 0. -1.
         -1   -1    0    0    0  501 -0.00000000000E+00 -0.00000000000E+00 -0.55774020632E+02  0.55774020632E+02  0.00000000000E+00 0.  1.
          6    1    1    2  502    0 -0.66622407339E+02  0.25679342956E+02  0.37712938779E+03  0.42060497970E+03  0.17200000000E+03 0.  1.
         -6    1    1    2    0  501  0.66622407339E+02 -0.25679342956E+02  0.22070687730E+03  0.28877932665E+03  0.17200000000E+03 0.  1.
</event>
<event>
 4    1  0.3196149E-002  0.2942581E+03  0.7818608E-02  0.1088147E+00
         -1   -1    0    0    0  501 -0.00000000000E+00  0.00000000000E+00  0.84728934126E+02  0.84728934126E+02  0.00000000000E+00 0.  1.
          1   -1    0    0  502    0  0.00000000000E+00 -0.00000000000E+00 -0.10346091944E+04  0.10346091944E+04  0.00000000000E+00 0. -1.
          6    1    1    2  502    0 -0.10330825973E+03  0.21524691291E+03 -0.41300612809E+03  0.50711132100E+03  0.17200000000E+03 0. -1.
         -6    1    1    2    0  501  0.10330825973E+03 -0.21524691291E+03 -0.53687413217E+03  0.61222680751E+03  0.17200000000E+03 0.  1.
</event>
<event>
 4    1  0.3196149E-002  0.2806049E+03  0.7818608E-02  0.1095359E+00
          1   -1    0    0  502    0  0.00000000000E+00  0.00000000000E+00  0.47509857472E+03  0.47509857472E+03  0.00000000000E+00 0. -1.
         -1   -1    0    0    0  501 -0.00000000000E+00 -0.00000000000E+00 -0.16834746887E+03  0.16834746887E+03  0.00000000000E+00 0.  1.
          6    1    1    2  502    0 -0.19227549451E+03  0.11038678068E+03  0.19347527484E+03  0.34083982912E+03  0.17200000000E+03 0. -1.
         -6    1    1    2    0  501  0.19227549451E+03 -0.11038678068E+03  0.11327583101E+03  0.30260621446E+03  0.17200000000E+03 0.  1.
</event>
<event>
 4    1  0.3196149E-002  0.1780007E+03  0.7818608E-02  0.1169752E+00
         -2   -1    0    0    0  501 -0.00000000000E+00  0.00000000000E+00  0.44623976423E+02  0.44623976423E+02  0.00000000000E+00 0.  1.
          2   -1    0    0  502    0  0.00000000000E+00 -0.00000000000E+00 -0.78588537479E+03  0.78588537479E+03  0.00000000000E+00 0. -1.
          6    1    1    2  502    0 -0.45825991170E+02 -0.49306557756E+00 -0.24161743749E+03  0.30010539928E+03  0.17200000000E+03 0.  1.
         -6    1    1    2    0  501  0.45825991170E+02  0.49306557756E+00 -0.49964396088E+03  0.53040395193E+03  0.17200000000E+03 0. -1.
</event>
<event>
 4    1  0.3196149E-002  0.1965870E+03  0.7818608E-02  0.1152651E+00
          3   -1    0    0  502    0  0.00000000000E+00  0.00000000000E+00  0.47274922334E+03  0.47274922334E+03  0.00000000000E+00 0. -1.
         -3   -1    0    0    0  501 -0.00000000000E+00 -0.00000000000E+00 -0.13227093626E+03  0.13227093626E+03  0.00000000000E+00 0.  1.
          6    1    1    2  502    0 -0.52331159434E+02 -0.79522897254E+02  0.35719999347E+03  0.40772328456E+03  0.17200000000E+03 0. -1.
         -6    1    1    2    0  501  0.52331159434E+02  0.79522897254E+02 -0.16721706393E+02  0.19729687504E+03  0.17200000000E+03 0.  1.
</event>
<event>
 4    1  0.3196149E-002  0.1723796E+03  0.7818608E-02  0.1175389E+00
         -4   -1    0    0    0  501 -0.00000000000E+00  0.00000000000E+00  0.10322180789E+03  0.10322180789E+03  0.00000000000E+00 0.  1.
          4   -1    0    0  502    0  0.00000000000E+00 -0.00000000000E+00 -0.30144173344E+03  0.30144173344E+03  0.00000000000E+00 0. -1.
          6    1    1    2  502    0 -0.22134067462E+01  0.11216955274E+02 -0.14203791271E+03  0.22335954849E+03  0.17200000000E+03 0. -1.
         -6    1    1    2    0  501  0.22134067462E+01 -0.11216955274E+02 -0.56182012844E+02  0.18130399285E+03  0.17200000000E+03 0.  1.
</event>
<event>
 4    1  0.3196149E-002  0.1936041E+03  0.7818608E-02  0.1155250E+00
          2   -1    0    0  502    0  0.00000000000E+00  0.00000000000E+00  0.12873138776E+04  0.12873138776E+04  0.00000000000E+00 0. -1.
         -2   -1    0    0    0  501 -0.00000000000E+00 -0.00000000000E+00 -0.11978274653E+03  0.11978274653E+03  0.00000000000E+00 0.  1.
          6    1    1    2  502    0  0.72808432042E+02  0.50965432829E+02  0.11958604340E+04  0.12114308568E+04  0.17200000000E+03 0. -1.
         -6    1    1    2    0  501 -0.72808432042E+02 -0.50965432829E+02 -0.28329302920E+02  0.19566576738E+03  0.17200000000E+03 0.  1.
</event>
<event>
 4    1  0.3196149E-002  0.2056389E+03  0.7818608E-02  0.1145067E+00
         -1   -1    0    0    0  501 -0.00000000000E+00  0.00000000000E+00  0.39876926845E+02  0.39876926845E+02  0.00000000000E+00 0.  1.
          1   -1    0    0  502    0  0.00000000000E+00 -0.00000000000E+00 -0.10730818058E+04  0.10730818058E+04  0.00000000000E+00 0. -1.
          6    1    1    2  502    0  0.10908616091E+03  0.28347376080E+02 -0.57698594444E+03  0.61253583104E+03  0.17200000000E+03 0. -1.
         -6    1    1    2    0  501 -0.10908616091E+03 -0.28347376080E+02 -0.45621893448E+03  0.50042290156E+03  0.17200000000E+03 0.  1.
</event>
<event>
 4    1  0.3196149E-002  0.1979326E+03  0.7818608E-02  0.1151495E+00
          2   -1    0    0  502    0  0.00000000000E+00  0.00000000000E+00  0.96098013695E+03  0.96098013695E+03  0.00000000000E+00 0. -1.
         -2   -1    0    0    0  501 -0.00000000000E+00 -0.00000000000E+00 -0.46768783952E+02  0.46768783952E+02  0.00000000000E+00 0.  1.
          6    1    1    2  502    0 -0.97825195041E+02 -0.48506031451E+01  0.27661861083E+03  0.34013990209E+03  0.17200000000E+03 0.  1.
         -6    1    1    2    0  501  0.97825195041E+02  0.48506031451E+01  0.63759274216E+03  0.66760901881E+03  0.17200000000E+03 0. -1.
</event>
<event>
 4    1  0.3196149E-002  0.2996402E+03  0.7818608E-02  0.1085421E+00
          1   -1    0    0  502    0  0.00000000000E+00  0.00000000000E+00  0.25541702727E+03  0.25541702727E+03  0.00000000000E+00 0. -1.
         -1   -1    0    0    0  501 -0.00000000000E+00 -0.00000000000E+00 -0.37096345102E+03  0.37096345102E+03  0.00000000000E+00 0.  1.
          6    1    1    2  502    0 -0.21015658093E+03 -0.12662713523E+03  0.13928277185E+02  0.29996369246E+03  0.17200000000E+03 0. -1.
         -6    1    1    2    0  501  0.21015658093E+03  0.12662713523E+03 -0.12947470094E+03  0.32641678583E+03  0.17200000000E+03 0.  1.
</event>
<event>
 4    1  0.3196149E-002  0.3225944E+03  0.7818608E-02  0.1074461E+00
          2   -1    0    0  502    0  0.00000000000E+00  0.00000000000E+00  0.50094282169E+03  0.50094282169E+03  0.00000000000E+00 0. -1.
         -2   -1    0    0    0  501 -0.00000000000E+00 -0.00000000000E+00 -0.21036267306E+03  0.21036267306E+03  0.00000000000E+00 0.  1.
          6    1    1    2  502    0  0.16105525795E+03  0.22032789729E+03  0.18498145241E+03  0.37186733679E+03  0.17200000000E+03 0. -1.
         -6    1    1    2    0  501 -0.16105525795E+03 -0.22032789729E+03  0.10559869622E+03  0.33943815796E+03  0.17200000000E+03 0.  1.
</event>
<event>
 4    1  0.3196149E-002  0.2355793E+03  0.7818608E-02  0.1122773E+00
         -2   -1    0    0    0  501 -0.00000000000E+00  0.00000000000E+00  0.81952231644E+02  0.81952231644E+02  0.00000000000E+00 0.  1.
          2   -1    0    0  502    0  0.00000000000E+00 -0.00000000000E+00 -0.71829842172E+03  0.71829842172E+03  0.00000000000E+00 0. -1.
          6    1    1    2  502    0  0.14447863255E+03  0.70989748892E+02 -0.22245721885E+03  0.32401363232E+03  0.17200000000E+03 0.  1.
         -6    1    1    2    0  501 -0.14447863255E+03 -0.70989748892E+02 -0.41388897123E+03  0.47623702104E+03  0.17200000000E+03 0.  1.
</event>
<event>
 4    1  0.3196149E-002  0.2835082E+03  0.7818608E-02  0.1093788E+00
          2   -1    0    0  502    0  0.00000000000E+00  0.00000000000E+00  0.25950021535E+03  0.25950021535E+03  0.00000000000E+00 0. -1.
         -2   -1    0    0    0  501 -0.00000000000E+00 -0.00000000000E+00 -0.31082338580E+03  0.31082338580E+03  0.00000000000E+00 0.  1.
          6    1    1    2  502    0 -0.17471911076E+03  0.14235919509E+03 -0.88054776238E+01  0.28364492685E+03  0.17200000000E+03 0.  1.
         -6    1    1    2    0  501  0.17471911076E+03 -0.14235919509E+03 -0.42517692826E+02  0.28667867430E+03  0.17200000000E+03 0.  1.
</event>
<event>
 4    1  0.3196149E-002  0.2226984E+03  0.7818608E-02  0.1131887E+00
          2   -1    0    0  502    0  0.00000000000E+00  0.00000000000E+00  0.37023018438E+03  0.37023018438E+03  0.00000000000E+00 0. -1.
         -2   -1    0    0    0  501 -0.00000000000E+00 -0.00000000000E+00 -0.39838556055E+03  0.39838556055E+03  0.00000000000E+00 0.  1.
          6    1    1    2  502    0 -0.23491198447E+02  0.13949454378E+03  0.29902187881E+03  0.37283863554E+03  0.17200000000E+03 0. -1.
         -6    1    1    2    0  501  0.23491198447E+02 -0.13949454378E+03 -0.32717725497E+03  0.39577710939E+03  0.17200000000E+03 0.  1.
</event>
<event>
 4    1  0.3196149E-002  0.2250711E+03  0.7818608E-02  0.1130158E+00
          1   -1    0    0  502    0  0.00000000000E+00  0.00000000000E+00  0.26885300121E+03  0.26885300121E+03  0.00000000000E+00 0. -1.
         -1   -1    0    0    0  501 -0.00000000000E+00 -0.00000000000E+00 -0.19168533926E+03  0.19168533926E+03  0.00000000000E+00 0.  1.
          6    1    1    2  502    0 -0.61393000324E+02 -0.13154425671E+03  0.68643026373E+02  0.23530587972E+03  0.17200000000E+03 0.  1.
         -6    1    1    2    0  501  0.61393000324E+02  0.13154425671E+03  0.85246355728E+01  0.22523246075E+03  0.17200000000E+03 0.  1.
</event>
<event>
 4    1  0.3196149E-002  0.2666392E+03  0.7818608E-02  0.1103219E+00
          1   -1    0    0  502    0  0.00000000000E+00  0.00000000000E+00  0.16584200161E+03  0.16584200161E+03  0.00000000000E+00 0. -1.
         -1   -1    0    0    0  501 -0.00000000000E+00 -0.00000000000E+00 -0.56029176820E+03  0.56029176820E+03  0.00000000000E+00 0.  1.
          6    1    1    2  502    0  0.15755356263E+03 -0.12918727709E+03 -0.21273062971E+02  0.26748648726E+03  0.17200000000E+03 0. -1.
         -6    1    1    2    0  501 -0.15755356263E+03  0.12918727709E+03 -0.37317670362E+03  0.45864728255E+03  0.17200000000E+03 0.  1.
</event>
<event>
 4    1  0.3196149E-002  0.1731695E+03  0.7818608E-02  0.1174582E+00
         -2   -1    0    0    0  501 -0.00000000000E+00  0.00000000000E+00  0.77882453415E+03  0.77882453415E+03  0.00000000000E+00 0.  1.
          2   -1    0    0  502    0  0.00000000000E+00 -0.00000000000E+00 -0.51775001009E+02  0.51775001009E+02  0.00000000000E+00 0. -1.
          6    1    1    2  502    0  0.25969668159E+01 -0.19923077400E+02  0.15326441235E+03  0.23125235857E+03  0.17200000000E+03 0. -1.
         -6    1    1    2    0  501 -0.25969668159E+01  0.19923077400E+02  0.57378512079E+03  0.59934717659E+03  0.17200000000E+03 0.  1.
</event>
<event>
 4    1  0.3196149E-002  0.2117019E+03  0.7818608E-02  0.1140225E+00
          2   -1    0    0  502    0  0.00000000000E+00  0.00000000000E+00  0.42167848435E+04  0.42167848435E+04  0.00000000000E+00 0. -1.
         -2   -1    0    0    0  501 -0.00000000000E+00 -0.00000000000E+00 -0.17695825460E+02  0.17695825460E+02  0.00000000000E+00 0.  1.
          6    1    1    2  502    0 -0.12320824672E+03 -0.73093370249E+01  0.34375725060E+04  0.34440851373E+04  0.17200000000E+03 0. -1.
         -6    1    1    2    0  501  0.12320824672E+03  0.73093370249E+01  0.76151651199E+03  0.79039553168E+03  0.17200000000E+03 0.  1.
</event>
<event>
 4    1  0.3196149E-002  0.4457690E+03  0.7818608E-02  0.1028991E+00
          1   -1    0    0  502    0  0.00000000000E+00  0.00000000000E+00  0.30034523751E+03  0.30034523751E+03  0.00000000000E+00 0. -1.
         -1   -1    0    0    0  501 -0.00000000000E+00 -0.00000000000E+00 -0.11380417280E+04  0.11380417280E+04  0.00000000000E+00 0.  1.
          6    1    1    2  502    0 -0.34595885587E+03 -0.22234761475E+03 -0.88418691499E+03  0.99020022843E+03  0.17200000000E+03 0. -1.
         -6    1    1    2    0  501  0.34595885587E+03  0.22234761475E+03  0.46490424494E+02  0.44818673710E+03  0.17200000000E+03 0.  1.
</event>
<event>
 4    1  0.3196149E-002  0.2306265E+03  0.7818608E-02  0.1126200E+00
          1   -1    0    0  502    0  0.00000000000E+00  0.00000000000E+00  0.39278632767E+04  0.39278632767E+04  0.00000000000E+00 0. -1.
         -1   -1    0    0    0  501 -0.00000000000E+00 -0.00000000000E+00 -0.13618079421E+02  0.13618079421E+02  0.00000000000E+00 0.  1.
          6    1    1    2  502    0  0.12206941377E+03  0.93293190634E+02  0.18091913749E+04  0.18238316787E+04  0.17200000000E+03 0.  1.
         -6    1    1    2    0  501 -0.12206941377E+03 -0.93293190634E+02  0.21050538223E+04  0.21176496774E+04  0.17200000000E+03 0.  1.
</event>
<event>
 4    1  0.3196149E-002  0.3671216E+03  0.7818608E-02  0.1055799E+00
          2   -1    0    0  502    0  0.00000000000E+00  0.00000000000E+00  0.11611962898E+04  0.11611962898E+04  0.00000000000E+00 0. -1.
         -2   -1    0    0    0  501 -0.00000000000E+00 -0.00000000000E+00 -0.13156026895E+03  0.13156026895E+03  0.00000000000E+00 0.  1.
          6    1    1    2  502    0 -0.20214569915E+03  0.25363634018E+03  0.73662503898E+03  0.82303992904E+03  0.17200000000E+03 0. -1.
         -6    1    1    2    0  501  0.20214569915E+03 -0.25363634018E+03  0.29301098191E+03  0.46971662975E+03  0.17200000000E+03 0.  1.
</event>
<event>
 4    1  0.3196149E-002  0.3565723E+03  0.7818608E-02  0.1059949E+00
         -1   -1    0    0    0  501 -0.00000000000E+00  0.00000000000E+00  0.83309254858E+02  0.83309254858E+02  0.00000000000E+00 0.  1.
          1   -1    0    0  502    0  0.00000000000E+00 -0.00000000000E+00 -0.21575113889E+04  0.21575113889E+04  0.00000000000E+00 0. -1.
          6    1    1    2  502    0  0.10943330426E+03  0.29254770559E+03 -0.16431864755E+04  0.16814296302E+04  0.17200000000E+03 0. -1.
         -6    1    1    2    0  501 -0.10943330426E+03 -0.29254770559E+03 -0.43101565859E+03  0.55939101358E+03  0.17200000000E+03 0.  1.
</event>
<event>
 4    1  0.3196149E-002  0.3450973E+03  0.7818608E-02  0.1064645E+00
          2   -1    0    0  502    0  0.00000000000E+00  0.00000000000E+00  0.11706540867E+04  0.11706540867E+04  0.00000000000E+00 0. -1.
         -2   -1    0    0    0  501 -0.00000000000E+00 -0.00000000000E+00 -0.18015461886E+03  0.18015461886E+03  0.00000000000E+00 0.  1.
          6    1    1    2  502    0  0.81711662753E+02  0.28780438774E+03  0.94086880089E+03  0.10021607964E+04  0.17200000000E+03 0. -1.
         -6    1    1    2    0  501 -0.81711662753E+02 -0.28780438774E+03  0.49630666960E+02  0.34864790912E+03  0.17200000000E+03 0.  1.
</event>
<event>
 4    1  0.3196149E-002  0.2352005E+03  0.7818608E-02  0.1123032E+00
          2   -1    0    0  502    0  0.00000000000E+00  0.00000000000E+00  0.44041925473E+03  0.44041925473E+03  0.00000000000E+00 0. -1.
         -2   -1    0    0    0  501 -0.00000000000E+00 -0.00000000000E+00 -0.12614453008E+03  0.12614453008E+03  0.00000000000E+00 0.  1.
          6    1    1    2  502    0 -0.68057512639E+02 -0.14527018974E+03  0.17564851208E+03  0.29355008576E+03  0.17200000000E+03 0. -1.
         -6    1    1    2    0  501  0.68057512639E+02  0.14527018974E+03  0.13862621257E+03  0.27301369905E+03  0.17200000000E+03 0.  1.
</event>
<event>
 4    1  0.3196149E-002  0.1796462E+03  0.7818608E-02  0.1168146E+00
         -2   -1    0    0    0  501 -0.00000000000E+00  0.00000000000E+00  0.39734510994E+02  0.39734510994E+02  0.00000000000E+00 0.  1.
          2   -1    0    0  502    0  0.00000000000E+00 -0.00000000000E+00 -0.10646601203E+04  0.10646601203E+04  0.00000000000E+00 0. -1.
          6    1    1    2  502    0 -0.34862877010E+02 -0.38384094584E+02 -0.78135411507E+03  0.80173999030E+03  0.17200000000E+03 0. -1.
         -6    1    1    2    0  501  0.34862877010E+02  0.38384094584E+02 -0.24357149424E+03  0.30265464100E+03  0.17200000000E+03 0.  1.
</event>
<event>
 4    1  0.3196149E-002  0.2357994E+03  0.7818608E-02  0.1122623E+00
         -2   -1    0    0    0  501 -0.00000000000E+00  0.00000000000E+00  0.88673612008E+02  0.88673612008E+02  0.00000000000E+00 0.  1.
          2   -1    0    0  502    0  0.00000000000E+00 -0.00000000000E+00 -0.63452000533E+03  0.63452000533E+03  0.00000000000E+00 0. -1.
          6    1    1    2  502    0  0.11881625895E+03  0.10908740874E+03 -0.23364711638E+03  0.33195231755E+03  0.17200000000E+03 0. -1.
         -6    1    1    2    0  501 -0.11881625895E+03 -0.10908740874E+03 -0.31219927694E+03  0.39124129978E+03  0.17200000000E+03 0. -1.
</event>
<event>
 4    1  0.3196149E-002  0.4031688E+03  0.7818608E-02  0.1042688E+00
          1   -1    0    0  502    0  0.00000000000E+00  0.00000000000E+00  0.67613927839E+03  0.67613927839E+03  0.00000000000E+00 0. -1.
         -1   -1    0    0    0  501 -0.00000000000E+00 -0.00000000000E+00 -0.24057953897E+03  0.24057953897E+03  0.00000000000E+00 0.  1.
          6    1    1    2  502    0  0.75589146812E+02 -0.35671752769E+03  0.23023770685E+03  0.46427848899E+03  0.17200000000E+03 0. -1.
         -6    1    1    2    0  501 -0.75589146812E+02  0.35671752769E+03  0.20532203257E+03  0.45244032837E+03  0.17200000000E+03 0.  1.
</event>
<event>
 4    1  0.3196149E-002  0.1791981E+03  0.7818608E-02  0.1168581E+00
         -2   -1    0    0    0  501 -0.00000000000E+00  0.00000000000E+00  0.68975104936E+02  0.68975104936E+02  0.00000000000E+00 0.  1.
          2   -1    0    0  502    0  0.00000000000E+00 -0.00000000000E+00 -0.47092485173E+03  0.47092485173E+03  0.00000000000E+00 0. -1.
          6    1    1    2  502    0  0.59310552754E+01  0.49927935192E+02 -0.17215914430E+03  0.24849697603E+03  0.17200000000E+03 0. -1.
         -6    1    1    2    0  501 -0.59310552754E+01 -0.49927935192E+02 -0.22979060249E+03  0.29140298063E+03  0.17200000000E+03 0.  1.
</event>
<event>
 4    1  0.3196149E-002  0.2535398E+03  0.7818608E-02  0.1111088E+00
          1   -1    0    0  502    0  0.00000000000E+00  0.00000000000E+00  0.28292530615E+03  0.28292530615E+03  0.00000000000E+00 0. -1.
         -1   -1    0    0    0  501 -0.00000000000E+00 -0.00000000000E+00 -0.30656378638E+03  0.30656378638E+03  0.00000000000E+00 0.  1.
          6    1    1    2  502    0 -0.11875764137E+03  0.14350979248E+03  0.13814201032E+03  0.28873110836E+03  0.17200000000E+03 0. -1.
         -6    1    1    2    0  501  0.11875764137E+03 -0.14350979248E+03 -0.16178049055E+03  0.30075798417E+03  0.17200000000E+03 0.  1.
</event>
<event>
 4    1  0.3196149E-002  0.4432693E+03  0.7818608E-02  0.1029748E+00
          2   -1    0    0  502    0  0.00000000000E+00  0.00000000000E+00  0.16890676030E+03  0.16890676030E+03  0.00000000000E+00 0. -1.
         -2   -1    0    0    0  501 -0.00000000000E+00 -0.00000000000E+00 -0.15888832436E+04  0.15888832436E+04  0.00000000000E+00 0.  1.
          6    1    1    2  502    0  0.31108084961E+03  0.26482524593E+03 -0.25511762948E+03  0.51144179605E+03  0.17200000000E+03 0. -1.
         -6    1    1    2    0  501 -0.31108084961E+03 -0.26482524593E+03 -0.11648588538E+04  0.12463482078E+04  0.17200000000E+03 0.  1.
</event>
<event>
 4    1  0.3196149E-002  0.1863902E+03  0.7818608E-02  0.1161758E+00
          1   -1    0    0  502    0  0.00000000000E+00  0.00000000000E+00  0.27251244161E+03  0.27251244161E+03  0.00000000000E+00 0. -1.
         -1   -1    0    0    0  501 -0.00000000000E+00 -0.00000000000E+00 -0.19106994511E+03  0.19106994511E+03  0.00000000000E+00 0.  1.
          6    1    1    2  502    0  0.46196458175E+02 -0.54983729957E+02  0.17443527153E+03  0.25528217184E+03  0.17200000000E+03 0. -1.
         -6    1    1    2    0  501 -0.46196458175E+02  0.54983729957E+02 -0.92992775033E+02  0.20830021487E+03  0.17200000000E+03 0.  1.
</event>
<event>
 4    1  0.3196149E-002  0.2264823E+03  0.7818608E-02  0.1129140E+00
         -2   -1    0    0    0  501 -0.00000000000E+00  0.00000000000E+00  0.46005768514E+03  0.46005768514E+03  0.00000000000E+00 0.  1.
          2   -1    0    0  502    0  0.00000000000E+00 -0.00000000000E+00 -0.13659066381E+03  0.13659066381E+03  0.00000000000E+00 0. -1.
          6    1    1    2  502    0 -0.86378201387E+02 -0.11936930469E+03  0.33861487961E+02  0.22899961778E+03  0.17200000000E+03 0. -1.
         -6    1    1    2    0  501  0.86378201387E+02  0.11936930469E+03  0.28960553336E+03  0.36764873117E+03  0.17200000000E+03 0.  1.
</event>
<event>
 4    1  0.3196149E-002  0.3449379E+03  0.7818608E-02  0.1064712E+00
          1   -1    0    0  502    0  0.00000000000E+00  0.00000000000E+00  0.80027099865E+03  0.80027099865E+03  0.00000000000E+00 0. -1.
         -1   -1    0    0    0  501 -0.00000000000E+00 -0.00000000000E+00 -0.14872253252E+03  0.14872253252E+03  0.00000000000E+00 0.  1.
          6    1    1    2  502    0  0.29892325442E+03 -0.65618785762E+01  0.31750364131E+03  0.46881844303E+03  0.17200000000E+03 0. -1.
         -6    1    1    2    0  501 -0.29892325442E+03  0.65618785762E+01  0.33404482482E+03  0.48017508814E+03  0.17200000000E+03 0.  1.
</event>
<event>
 4    1  0.3196149E-002  0.4485387E+03  0.7818608E-02  0.1028159E+00
         -2   -1    0    0    0  501 -0.00000000000E+00  0.00000000000E+00  0.12847023497E+03  0.12847023497E+03  0.00000000000E+00 0.  1.
          2   -1    0    0  502    0  0.00000000000E+00 -0.00000000000E+00 -0.34299857665E+04  0.34299857665E+04  0.00000000000E+00 0. -1.
          6    1    1    2  502    0 -0.36110519382E+03  0.20299264834E+03 -0.29623667854E+04  0.29961314971E+04  0.17200000000E+03 0. -1.
         -6    1    1    2    0  501  0.36110519382E+03 -0.20299264834E+03 -0.33914874610E+03  0.56232450441E+03  0.17200000000E+03 0.  1.
</event>
<event>
 4    1  0.3196149E-002  0.1917025E+03  0.7818608E-02  0.1156935E+00
         -2   -1    0    0    0  501 -0.00000000000E+00  0.00000000000E+00  0.10405279824E+03  0.10405279824E+03  0.00000000000E+00 0.  1.
          2   -1    0    0  502    0  0.00000000000E+00 -0.00000000000E+00 -0.41729062695E+03  0.41729062695E+03  0.00000000000E+00 0. -1.
          6    1    1    2  502    0  0.79163895926E+02  0.29982256148E+02 -0.25878896880E+03  0.32205836191E+03  0.17200000000E+03 0. -1.
         -6    1    1    2    0  501 -0.79163895926E+02 -0.29982256148E+02 -0.54448859916E+02  0.19928506328E+03  0.17200000000E+03 0.  1.
</event>
<event>
 4    1  0.3196149E-002  0.1888931E+03  0.7818608E-02  0.1159463E+00
         -1   -1    0    0    0  501 -0.00000000000E+00  0.00000000000E+00  0.23363935618E+03  0.23363935618E+03  0.00000000000E+00 0.  1.
          1   -1    0    0  502    0  0.00000000000E+00 -0.00000000000E+00 -0.48629667910E+03  0.48629667910E+03  0.00000000000E+00 0. -1.
          6    1    1    2  502    0  0.75138275526E+02  0.21233046637E+02 -0.42446391509E+03  0.46459683375E+03  0.17200000000E+03 0. -1.
         -6    1    1    2    0  501 -0.75138275526E+02 -0.21233046637E+02  0.17180659218E+03  0.25533920152E+03  0.17200000000E+03 0.  1.
</event>
<event>
 4    1  0.3196149E-002  0.3555009E+03  0.7818608E-02  0.1060380E+00
         -2   -1    0    0    0  501 -0.00000000000E+00  0.00000000000E+00  0.23064621601E+03  0.23064621601E+03  0.00000000000E+00 0.  1.
          2   -1    0    0  502    0  0.00000000000E+00 -0.00000000000E+00 -0.86773109162E+03  0.86773109162E+03  0.00000000000E+00 0. -1.
          6    1    1    2  502    0 -0.28030997767E+03 -0.13499327743E+03 -0.65193848557E+03  0.74256626472E+03  0.17200000000E+03 0. -1.
         -6    1    1    2    0  501  0.28030997767E+03  0.13499327743E+03  0.14853609958E+02  0.35581104292E+03  0.17200000000E+03 0.  1.
</event>
<event>
 4    1  0.3196149E-002  0.2440454E+03  0.7818608E-02  0.1117127E+00
          1   -1    0    0  502    0  0.00000000000E+00  0.00000000000E+00  0.10633991950E+04  0.10633991950E+04  0.00000000000E+00 0. -1.
         -1   -1    0    0    0  501 -0.00000000000E+00 -0.00000000000E+00 -0.56222887808E+02  0.56222887808E+02  0.00000000000E+00 0.  1.
          6    1    1    2  502    0 -0.10466778556E+03  0.13790875860E+03  0.53824958501E+03  0.59099135932E+03  0.17200000000E+03 0. -1.
         -6    1    1    2    0  501  0.10466778556E+03 -0.13790875860E+03  0.46892672215E+03  0.52863072345E+03  0.17200000000E+03 0. -1.
</event>
<event>
 4    1  0.3196149E-002  0.3414365E+03  0.7818608E-02  0.1066186E+00
         -2   -1    0    0    0  501 -0.00000000000E+00  0.00000000000E+00  0.34170536732E+03  0.34170536732E+03  0.00000000000E+00 0.  1.
          2   -1    0    0  502    0  0.00000000000E+00 -0.00000000000E+00 -0.36637799029E+03  0.36637799029E+03  0.00000000000E+00 0. -1.
          6    1    1    2  502    0 -0.29282271683E+03 -0.35351216488E+02  0.80534273085E+02  0.35080567433E+03  0.17200000000E+03 0. -1.
         -6    1    1    2    0  501  0.29282271683E+03  0.35351216488E+02 -0.10520689605E+03  0.35727768329E+03  0.17200000000E+03 0. -1.
</event>
<event>
 4    1  0.3196149E-002  0.2095021E+03  0.7818608E-02  0.1141961E+00
         -1   -1    0    0    0  501 -0.00000000000E+00  0.00000000000E+00  0.72200441361E+02  0.72200441361E+02  0.00000000000E+00 0.  1.
          1   -1    0    0  502    0  0.00000000000E+00 -0.00000000000E+00 -0.63775932406E+03  0.63775932406E+03  0.00000000000E+00 0. -1.
          6    1    1    2  502    0  0.82591373007E+02  0.86520531272E+02 -0.35958029853E+03  0.41615997924E+03  0.17200000000E+03 0. -1.
         -6    1    1    2    0  501 -0.82591373007E+02 -0.86520531272E+02 -0.20597858417E+03  0.29379978619E+03  0.17200000000E+03 0. -1.
</event>
<event>
 4    1  0.3196149E-002  0.2811294E+03  0.7818608E-02  0.1095074E+00
          1   -1    0    0  502    0  0.00000000000E+00  0.00000000000E+00  0.85298503363E+03  0.85298503363E+03  0.00000000000E+00 0. -1.
         -1   -1    0    0    0  501 -0.00000000000E+00 -0.00000000000E+00 -0.13535332573E+03  0.13535332573E+03  0.00000000000E+00 0.  1.
          6    1    1    2  502    0 -0.14304721207E+03 -0.17025629878E+03  0.63636783059E+03  0.69569945232E+03  0.17200000000E+03 0. -1.
         -6    1    1    2    0  501  0.14304721207E+03  0.17025629878E+03  0.81263877303E+02  0.29263890703E+03  0.17200000000E+03 0.  1.
</event>
<event>
 4    1  0.3196149E-002  0.2094684E+03  0.7818608E-02  0.1141988E+00
          2   -1    0    0  502    0  0.00000000000E+00  0.00000000000E+00  0.27426794040E+03  0.27426794040E+03  0.00000000000E+00 0. -1.
         -2   -1    0    0    0  501 -0.00000000000E+00 -0.00000000000E+00 -0.16385926334E+03  0.16385926334E+03  0.00000000000E+00 0.  1.
          6    1    1    2  502    0  0.49202417752E+02 -0.10895925122E+03  0.88916662090E+02  0.22755915525E+03  0.17200000000E+03 0. -1.
         -6    1    1    2    0  501 -0.49202417752E+02  0.10895925122E+03  0.21492014974E+02  0.21056804850E+03  0.17200000000E+03 0.  1.
</event>
<event>
 4    1  0.3196149E-002  0.1748789E+03  0.7818608E-02  0.1172853E+00
         -2   -1    0    0    0  501 -0.00000000000E+00  0.00000000000E+00  0.22109619203E+02  0.22109619203E+02  0.00000000000E+00 0.  1.
          2   -1    0    0  502    0  0.00000000000E+00 -0.00000000000E+00 -0.16052627009E+04  0.16052627009E+04  0.00000000000E+00 0. -1.
          6    1    1    2  502    0 -0.20494360557E+02 -0.24054349405E+02 -0.10941946474E+04  0.11080814758E+04  0.17200000000E+03 0. -1.
         -6    1    1    2    0  501  0.20494360557E+02  0.24054349405E+02 -0.48895843428E+03  0.51929084432E+03  0.17200000000E+03 0.  1.
</event>
<event>
 4    1  0.3196149E-002  0.2249128E+03  0.7818608E-02  0.1130272E+00
          1   -1    0    0  502    0  0.00000000000E+00  0.00000000000E+00  0.12811304764E+03  0.12811304764E+03  0.00000000000E+00 0. -1.
         -1   -1    0    0    0  501 -0.00000000000E+00 -0.00000000000E+00 -0.57475131641E+03  0.57475131641E+03  0.00000000000E+00 0.  1.
          6    1    1    2  502    0  0.13793196486E+03 -0.44458385520E+02 -0.41993362694E+03  0.47637173091E+03  0.17200000000E+03 0.  1.
         -6    1    1    2    0  501 -0.13793196486E+03  0.44458385520E+02 -0.26704641834E+02  0.22649263314E+03  0.17200000000E+03 0. -1.
</event>
<event>
 4    1  0.3196149E-002  0.1810485E+03  0.7818608E-02  0.1166792E+00
          1   -1    0    0  502    0  0.00000000000E+00  0.00000000000E+00  0.70615578515E+03  0.70615578515E+03  0.00000000000E+00 0. -1.
         -1   -1    0    0    0  501 -0.00000000000E+00 -0.00000000000E+00 -0.60148616836E+02  0.60148616836E+02  0.00000000000E+00 0.  1.
          6    1    1    2  502    0 -0.45084108896E+02  0.34088050760E+02  0.50606562995E+03  0.53747650544E+03  0.17200000000E+03 0. -1.
         -6    1    1    2    0  501  0.45084108896E+02 -0.34088050760E+02  0.13994153837E+03  0.22882789655E+03  0.17200000000E+03 0.  1.
</event>
<event>
 4    1  0.3196149E-002  0.1729304E+03  0.7818608E-02  0.1174826E+00
         -2   -1    0    0    0  501 -0.00000000000E+00  0.00000000000E+00  0.42829443329E+02  0.42829443329E+02  0.00000000000E+00 0.  1.
          2   -1    0    0  502    0  0.00000000000E+00 -0.00000000000E+00 -0.70140555451E+03  0.70140555451E+03  0.00000000000E+00 0. -1.
          6    1    1    2  502    0 -0.72690239341E+01  0.16372827798E+02 -0.35431662354E+03  0.39426536484E+03  0.17200000000E+03 0. -1.
         -6    1    1    2    0  501  0.72690239341E+01 -0.16372827798E+02 -0.30425948764E+03  0.34996963300E+03  0.17200000000E+03 0.  1.
</event>
<event>
 4    1  0.3196149E-002  0.1926848E+03  0.7818608E-02  0.1156062E+00
         -1   -1    0    0    0  501 -0.00000000000E+00  0.00000000000E+00  0.10897158980E+03  0.10897158980E+03  0.00000000000E+00 0.  1.
          1   -1    0    0  502    0  0.00000000000E+00 -0.00000000000E+00 -0.34667978388E+03  0.34667978388E+03  0.00000000000E+00 0. -1.
          6    1    1    2  502    0  0.42722094589E+02  0.75619108012E+02 -0.88951263455E+02  0.21222571506E+03  0.17200000000E+03 0. -1.
         -6    1    1    2    0  501 -0.42722094589E+02 -0.75619108012E+02 -0.14875693063E+03  0.24342565862E+03  0.17200000000E+03 0. -1.
</event>
<event>
 4    1  0.3196149E-002  0.1776014E+03  0.7818608E-02  0.1170145E+00
          2   -1    0    0  502    0  0.00000000000E+00  0.00000000000E+00  0.61378701008E+03  0.61378701008E+03  0.00000000000E+00 0. -1.
         -2   -1    0    0    0  501 -0.00000000000E+00 -0.00000000000E+00 -0.52457823946E+02  0.52457823946E+02  0.00000000000E+00 0.  1.
          6    1    1    2  502    0 -0.16615161368E+02 -0.41014532151E+02  0.32820187523E+03  0.37317385538E+03  0.17200000000E+03 0. -1.
         -6    1    1    2    0  501  0.16615161368E+02  0.41014532151E+02  0.23312731091E+03  0.29307097865E+03  0.17200000000E+03 0.  1.
</event>
<event>
 4    1  0.3196149E-002  0.2355691E+03  0.7818608E-02  0.1122780E+00
         -2   -1    0    0    0  501 -0.00000000000E+00  0.00000000000E+00  0.60492462252E+03  0.60492462252E+03  0.00000000000E+00 0.  1.
          2   -1    0    0  502    0  0.00000000000E+00 -0.00000000000E+00 -0.17345269198E+03  0.17345269198E+03  0.00000000000E+00 0. -1.
          6    1    1    2  502    0  0.15252031202E+03  0.51442731414E+02  0.48286895375E+03  0.53726643920E+03  0.17200000000E+03 0. -1.
         -6    1    1    2    0  501 -0.15252031202E+03 -0.51442731414E+02 -0.51397023212E+02  0.24111087530E+03  0.17200000000E+03 0. -1.
</event>
<event>
 4    1  0.3196149E-002  0.1798954E+03  0.7818608E-02  0.1167904E+00
         -2   -1    0    0    0  501 -0.00000000000E+00  0.00000000000E+00  0.38184366431E+03  0.38184366431E+03  0.00000000000E+00 0.  1.
          2   -1    0    0  502    0  0.00000000000E+00 -0.00000000000E+00 -0.10550474627E+03  0.10550474627E+03  0.00000000000E+00 0. -1.
          6    1    1    2  502    0 -0.47028082621E+02 -0.23805588133E+02  0.30100183397E+02  0.18239618313E+03  0.17200000000E+03 0. -1.
         -6    1    1    2    0  501  0.47028082621E+02  0.23805588133E+02  0.24623873465E+03  0.30495222745E+03  0.17200000000E+03 0.  1.
</event>
<event>
 4    1  0.3196149E-002  0.2229968E+03  0.7818608E-02  0.1131668E+00
         -1   -1    0    0    0  501 -0.00000000000E+00  0.00000000000E+00  0.44781986180E+03  0.44781986180E+03  0.00000000000E+00 0.  1.
          1   -1    0    0  502    0  0.00000000000E+00 -0.00000000000E+00 -0.45563879176E+03  0.45563879176E+03  0.00000000000E+00 0. -1.
          6    1    1    2  502    0 -0.88579454929E+02 -0.11089290462E+03 -0.39675562278E+03  0.45512919083E+03  0.17200000000E+03 0. -1.
         -6    1    1    2    0  501  0.88579454929E+02  0.11089290462E+03  0.38893669282E+03  0.44832946273E+03  0.17200000000E+03 0.  1.
</event>
<event>
 4    1  0.3196149E-002  0.1772795E+03  0.7818608E-02  0.1170462E+00
          1   -1    0    0  502    0  0.00000000000E+00  0.00000000000E+00  0.42157992069E+03  0.42157992069E+03  0.00000000000E+00 0. -1.
         -1   -1    0    0    0  501 -0.00000000000E+00 -0.00000000000E+00 -0.78545674908E+02  0.78545674908E+02  0.00000000000E+00 0.  1.
          6    1    1    2  502    0  0.26543760238E+02 -0.33755862121E+02  0.11510399864E+03  0.21136925022E+03  0.17200000000E+03 0.  1.
         -6    1    1    2    0  501 -0.26543760238E+02  0.33755862121E+02  0.22793024713E+03  0.28875634537E+03  0.17200000000E+03 0. -1.
</event>
<event>
 4    1  0.3196149E-002  0.2191073E+03  0.7818608E-02  0.1134550E+00
         -2   -1    0    0    0  501 -0.00000000000E+00  0.00000000000E+00  0.12726618532E+03  0.12726618532E+03  0.00000000000E+00 0.  1.
          2   -1    0    0  502    0  0.00000000000E+00 -0.00000000000E+00 -0.56788018163E+03  0.56788018163E+03  0.00000000000E+00 0. -1.
          6    1    1    2  502    0  0.12575681222E+03 -0.51080773892E+02 -0.42169885351E+03  0.47522409907E+03  0.17200000000E+03 0. -1.
         -6    1    1    2    0  501 -0.12575681222E+03  0.51080773892E+02 -0.18915142792E+02  0.21992226788E+03  0.17200000000E+03 0.  1.
</event>
<event>
 4    1  0.3196149E-002  0.5174764E+03  0.7818608E-02  0.1009315E+00
         -2   -1    0    0    0  501 -0.00000000000E+00  0.00000000000E+00  0.92569169016E+03  0.92569169016E+03  0.00000000000E+00 0.  1.
          2   -1    0    0  502    0  0.00000000000E+00 -0.00000000000E+00 -0.29031251364E+03  0.29031251364E+03  0.00000000000E+00 0. -1.
          6    1    1    2  502    0  0.35320266132E+03  0.33681696884E+03  0.28138659855E+03  0.58903328285E+03  0.17200000000E+03 0. -1.
         -6    1    1    2    0  501 -0.35320266132E+03 -0.33681696884E+03  0.35399257797E+03  0.62697092095E+03  0.17200000000E+03 0.  1.
</event>
<event>
 4    1  0.3196149E-002  0.4564723E+03  0.7818608E-02  0.1025809E+00
         -2   -1    0    0    0  501 -0.00000000000E+00  0.00000000000E+00  0.13507105808E+03  0.13507105808E+03  0.00000000000E+00 0.  1.
          2   -1    0    0  502    0  0.00000000000E+00 -0.00000000000E+00 -0.17906197919E+04  0.17906197919E+04  0.00000000000E+00 0. -1.
          6    1    1    2  502    0  0.38058315907E+03 -0.18422644091E+03 -0.11860829045E+04  0.12708892866E+04  0.17200000000E+03 0. -1.
         -6    1    1    2    0  501 -0.38058315907E+03  0.18422644091E+03 -0.46946582937E+03  0.65480156342E+03  0.17200000000E+03 0.  1.
</event>
<event>
 4    1  0.3196149E-002  0.2435798E+03  0.7818608E-02  0.1117431E+00
          2   -1    0    0  502    0  0.00000000000E+00  0.00000000000E+00  0.42290391391E+03  0.42290391391E+03  0.00000000000E+00 0. -1.
         -2   -1    0    0    0  501 -0.00000000000E+00 -0.00000000000E+00 -0.42071662815E+03  0.42071662815E+03  0.00000000000E+00 0.  1.
          6    1    1    2  502    0  0.91777023091E+02  0.14602780808E+03  0.34546606222E+03  0.42270313796E+03  0.17200000000E+03 0. -1.
         -6    1    1    2    0  501 -0.91777023091E+02 -0.14602780808E+03 -0.34327877646E+03  0.42091740409E+03  0.17200000000E+03 0.  1.
</event>
<event>
 4    1  0.3196149E-002  0.3771119E+03  0.7818608E-02  0.1052006E+00
         -1   -1    0    0    0  501 -0.00000000000E+00  0.00000000000E+00  0.81487238784E+02  0.81487238784E+02  0.00000000000E+00 0.  1.
          1   -1    0    0  502    0  0.00000000000E+00 -0.00000000000E+00 -0.21616174393E+04  0.21616174393E+04  0.00000000000E+00 0. -1.
          6    1    1    2  502    0 -0.25431321784E+03  0.21898435018E+03 -0.54781832935E+03  0.66507013192E+03  0.17200000000E+03 0. -1.
         -6    1    1    2    0  501  0.25431321784E+03 -0.21898435018E+03 -0.15323118712E+04  0.15780345462E+04  0.17200000000E+03 0.  1.
</event>
<event>
 4    1  0.3196149E-002  0.1763555E+03  0.7818608E-02  0.1171378E+00
          2   -1    0    0  502    0  0.00000000000E+00  0.00000000000E+00  0.90634144119E+03  0.90634144119E+03  0.00000000000E+00 0. -1.
         -2   -1    0    0    0  501 -0.00000000000E+00 -0.00000000000E+00 -0.37221237684E+02  0.37221237684E+02  0.00000000000E+00 0.  1.
          6    1    1    2  502    0  0.31642539570E+02  0.22716083336E+02  0.56638498098E+03  0.59320588115E+03  0.17200000000E+03 0. -1.
         -6    1    1    2    0  501 -0.31642539570E+02 -0.22716083336E+02  0.30273522253E+03  0.35035679772E+03  0.17200000000E+03 0.  1.
</event>
<event>
 4    1  0.3196149E-002  0.1758670E+03  0.7818608E-02  0.1171864E+00
          2   -1    0    0  502    0  0.00000000000E+00  0.00000000000E+00  0.12598821745E+04  0.12598821745E+04  0.00000000000E+00 0. -1.
         -2   -1    0    0    0  501 -0.00000000000E+00 -0.00000000000E+00 -0.26941449510E+02  0.26941449510E+02  0.00000000000E+00 0.  1.
          6    1    1    2  502    0  0.26960100437E+02 -0.24866466823E+02  0.80819388357E+03  0.82710733380E+03  0.17200000000E+03 0. -1.
         -6    1    1    2    0  501 -0.26960100437E+02  0.24866466823E+02  0.42474684142E+03  0.45971629021E+03  0.17200000000E+03 0.  1.
</event>
<event>
 4    1  0.3196149E-002  0.2130620E+03  0.7818608E-02  0.1139164E+00
         -1   -1    0    0    0  501 -0.00000000000E+00  0.00000000000E+00  0.23233208034E+02  0.23233208034E+02  0.00000000000E+00 0.  1.
          1   -1    0    0  502    0  0.00000000000E+00 -0.00000000000E+00 -0.23156612000E+04  0.23156612000E+04  0.00000000000E+00 0. -1.
          6    1    1    2  502    0  0.10520159649E+03 -0.68876884006E+02 -0.68398926718E+03  0.71640541502E+03  0.17200000000E+03 0.  1.
         -6    1    1    2    0  501 -0.10520159649E+03  0.68876884006E+02 -0.16084387247E+04  0.16224889930E+04  0.17200000000E+03 0.  1.
</event>
<event>
 4    1  0.3196149E-002  0.2305440E+03  0.7818608E-02  0.1126257E+00
          1   -1    0    0  502    0  0.00000000000E+00  0.00000000000E+00  0.31499286063E+04  0.31499286063E+04  0.00000000000E+00 0. -1.
         -1   -1    0    0    0  501 -0.00000000000E+00 -0.00000000000E+00 -0.18926115530E+02  0.18926115530E+02  0.00000000000E+00 0.  1.
          6    1    1    2  502    0 -0.14872100425E+03 -0.38060748884E+02  0.10437212520E+04  0.10688800726E+04  0.17200000000E+03 0.  1.
         -6    1    1    2    0  501  0.14872100425E+03  0.38060748884E+02  0.20872812387E+04  0.20999746492E+04  0.17200000000E+03 0. -1.
</event>
<event>
 4    1  0.3196149E-002  0.2103038E+03  0.7818608E-02  0.1141326E+00
          2   -1    0    0  502    0  0.00000000000E+00  0.00000000000E+00  0.22428935158E+04  0.22428935158E+04  0.00000000000E+00 0. -1.
         -2   -1    0    0    0  501 -0.00000000000E+00 -0.00000000000E+00 -0.39179874876E+02  0.39179874876E+02  0.00000000000E+00 0.  1.
          6    1    1    2  502    0 -0.11162287246E+03 -0.46733677503E+02  0.19060286328E+04  0.19175955911E+04  0.17200000000E+03 0. -1.
         -6    1    1    2    0  501  0.11162287246E+03  0.46733677503E+02  0.29768500817E+03  0.36447779954E+03  0.17200000000E+03 0.  1.
</event>
<event>
 4    1  0.3196149E-002  0.2277197E+03  0.7818608E-02  0.1128255E+00
         -2   -1    0    0    0  501 -0.00000000000E+00  0.00000000000E+00  0.68251840756E+02  0.68251840756E+02  0.00000000000E+00 0.  1.
          2   -1    0    0  502    0  0.00000000000E+00 -0.00000000000E+00 -0.76823587151E+03  0.76823587151E+03  0.00000000000E+00 0. -1.
          6    1    1    2  502    0  0.82853402344E+02 -0.12412716834E+03 -0.39387694469E+03  0.45496734801E+03  0.17200000000E+03 0. -1.
         -6    1    1    2    0  501 -0.82853402344E+02  0.12412716834E+03 -0.30610708607E+03  0.38152036426E+03  0.17200000000E+03 0.  1.
</event>
<event>
 4    1  0.3196149E-002  0.2175234E+03  0.7818608E-02  0.1135743E+00
          2   -1    0    0  502    0  0.00000000000E+00  0.00000000000E+00  0.11316306637E+04  0.11316306637E+04  0.00000000000E+00 0. -1.
         -2   -1    0    0    0  501 -0.00000000000E+00 -0.00000000000E+00 -0.41983959748E+02  0.41983959748E+02  0.00000000000E+00 0.  1.
          6    1    1    2  502    0 -0.94322074818E+02 -0.93998735718E+02  0.58231313252E+03  0.62161483285E+03  0.17200000000E+03 0. -1.
         -6    1    1    2    0  501  0.94322074818E+02  0.93998735718E+02  0.50733357139E+03  0.55199979056E+03  0.17200000000E+03 0.  1.
</event>
<event>
 4    1  0.3196149E-002  0.5241576E+03  0.7818608E-02  0.1007659E+00
          1   -1    0    0  502    0  0.00000000000E+00  0.00000000000E+00  0.16947810331E+03  0.16947810331E+03  0.00000000000E+00 0. -1.
         -1   -1    0    0    0  501 -0.00000000000E+00 -0.00000000000E+00 -0.16856971788E+04  0.16856971788E+04  0.00000000000E+00 0.  1.
          6    1    1    2  502    0 -0.36097940267E+03  0.33889676292E+03 -0.57652948214E+03  0.77918379658E+03  0.17200000000E+03 0. -1.
         -6    1    1    2    0  501  0.36097940267E+03 -0.33889676292E+03 -0.93968959332E+03  0.10759914855E+04  0.17200000000E+03 0.  1.
</event>
<event>
 4    1  0.3196149E-002  0.2062347E+03  0.7818608E-02  0.1144583E+00
         -1   -1    0    0    0  501 -0.00000000000E+00  0.00000000000E+00  0.20665939399E+02  0.20665939399E+02  0.00000000000E+00 0.  1.
          1   -1    0    0  502    0  0.00000000000E+00 -0.00000000000E+00 -0.20672939206E+04  0.20672939206E+04  0.00000000000E+00 0. -1.
          6    1    1    2  502    0  0.10886558614E+03  0.33121509614E+02 -0.10929021222E+04  0.11121905408E+04  0.17200000000E+03 0. -1.
         -6    1    1    2    0  501 -0.10886558614E+03 -0.33121509614E+02 -0.95372585900E+03  0.97576931924E+03  0.17200000000E+03 0.  1.
</event>
<event>
 4    1  0.3196149E-002  0.4503808E+03  0.7818608E-02  0.1027609E+00
          2   -1    0    0  502    0  0.00000000000E+00  0.00000000000E+00  0.63016457419E+03  0.63016457419E+03  0.00000000000E+00 0. -1.
         -2   -1    0    0    0  501 -0.00000000000E+00 -0.00000000000E+00 -0.32192543998E+03  0.32192543998E+03  0.00000000000E+00 0.  1.
          6    1    1    2  502    0 -0.36095093783E+03 -0.20729990441E+03  0.15920795933E+03  0.47769237403E+03  0.17200000000E+03 0. -1.
         -6    1    1    2    0  501  0.36095093783E+03  0.20729990441E+03  0.14903117489E+03  0.47439764015E+03  0.17200000000E+03 0.  1.
</event>
<event>
 4    1  0.3196149E-002  0.4092474E+03  0.7818608E-02  0.1040624E+00
          2   -1    0    0  502    0  0.00000000000E+00  0.00000000000E+00  0.42345651216E+03  0.42345651216E+03  0.00000000000E+00 0. -1.
         -2   -1    0    0    0  501 -0.00000000000E+00 -0.00000000000E+00 -0.47435028942E+03  0.47435028942E+03  0.00000000000E+00 0.  1.
          6    1    1    2  502    0 -0.19039761858E+03  0.31882313033E+03  0.15755829395E+03  0.43852942614E+03  0.17200000000E+03 0. -1.
         -6    1    1    2    0  501  0.19039761858E+03 -0.31882313033E+03 -0.20845207121E+03  0.45927737544E+03  0.17200000000E+03 0.  1.
</event>
<event>
 4    1  0.3196149E-002  0.1734808E+03  0.7818608E-02  0.1174266E+00
         -1   -1    0    0    0  501 -0.00000000000E+00  0.00000000000E+00  0.45703847233E+03  0.45703847233E+03  0.00000000000E+00 0.  1.
          1   -1    0    0  502    0  0.00000000000E+00 -0.00000000000E+00 -0.66530750649E+02  0.66530750649E+02  0.00000000000E+00 0. -1.
          6    1    1    2  502    0  0.28460361285E+01  0.22438777049E+02  0.16875694606E+03  0.24202170457E+03  0.17200000000E+03 0. -1.
         -6    1    1    2    0  501 -0.28460361285E+01 -0.22438777049E+02  0.22175077562E+03  0.28154751842E+03  0.17200000000E+03 0.  1.
</event>
<event>
 4    1  0.3196149E-002  0.1803650E+03  0.7818608E-02  0.1167450E+00
          1   -1    0    0  502    0  0.00000000000E+00  0.00000000000E+00  0.25495903692E+03  0.25495903692E+03  0.00000000000E+00 0. -1.
         -1   -1    0    0    0  501 -0.00000000000E+00 -0.00000000000E+00 -0.91943145922E+03  0.91943145922E+03  0.00000000000E+00 0.  1.
          6    1    1    2  502    0 -0.57687347362E+01  0.53983788045E+02  0.21269360130E+03  0.27887290243E+03  0.17200000000E+03 0. -1.
         -6    1    1    2    0  501  0.57687347362E+01 -0.53983788045E+02 -0.87716602361E+03  0.89551759371E+03  0.17200000000E+03 0.  1.
</event>
<event>
 4    1  0.3196149E-002  0.1894546E+03  0.7818608E-02  0.1158954E+00
         -2   -1    0    0    0  501 -0.00000000000E+00  0.00000000000E+00  0.94562130612E+01  0.94562130612E+01  0.00000000000E+00 0.  1.
          2   -1    0    0  502    0  0.00000000000E+00 -0.00000000000E+00 -0.39836498297E+04  0.39836498297E+04  0.00000000000E+00 0. -1.
          6    1    1    2  502    0 -0.58460394770E+02 -0.53772049051E+02 -0.15534375314E+04  0.15649476716E+04  0.17200000000E+03 0. -1.
         -6    1    1    2    0  501  0.58460394770E+02  0.53772049051E+02 -0.24207560852E+04  0.24281583711E+04  0.17200000000E+03 0.  1.
</event>
<event>
 4    1  0.3196149E-002  0.2476470E+03  0.7818608E-02  0.1114801E+00
          1   -1    0    0  502    0  0.00000000000E+00  0.00000000000E+00  0.21477938635E+03  0.21477938635E+03  0.00000000000E+00 0. -1.
         -1   -1    0    0    0  501 -0.00000000000E+00 -0.00000000000E+00 -0.29546319833E+03  0.29546319833E+03  0.00000000000E+00 0.  1.
          6    1    1    2  502    0  0.91038095128E+01  0.17793869707E+03  0.64018598316E+01  0.24772977833E+03  0.17200000000E+03 0. -1.
         -6    1    1    2    0  501 -0.91038095128E+01 -0.17793869707E+03 -0.87085671812E+02  0.26251280635E+03  0.17200000000E+03 0.  1.
</event>
<event>
 4    1  0.3196149E-002  0.2304100E+03  0.7818608E-02  0.1126352E+00
          1   -1    0    0  502    0  0.00000000000E+00  0.00000000000E+00  0.14078699206E+04  0.14078699206E+04  0.00000000000E+00 0. -1.
         -1   -1    0    0    0  501 -0.00000000000E+00 -0.00000000000E+00 -0.39392849515E+02  0.39392849515E+02  0.00000000000E+00 0.  1.
          6    1    1    2  502    0  0.14774948371E+03 -0.40924941317E+02  0.83386755953E+03  0.86511494473E+03  0.17200000000E+03 0. -1.
         -6    1    1    2    0  501 -0.14774948371E+03  0.40924941317E+02  0.53460951159E+03  0.58214782542E+03  0.17200000000E+03 0.  1.
</event>
<event>
 4    1  0.3196149E-002  0.3641142E+03  0.7818608E-02  0.1056967E+00
          2   -1    0    0  502    0  0.00000000000E+00  0.00000000000E+00  0.12329307054E+04  0.12329307054E+04  0.00000000000E+00 0. -1.
         -2   -1    0    0    0  501 -0.00000000000E+00 -0.00000000000E+00 -0.11081655123E+03  0.11081655123E+03  0.00000000000E+00 0.  1.
          6    1    1    2  502    0 -0.80903551617E+01  0.32082661247E+03  0.67673255141E+03  0.76846998331E+03  0.17200000000E+03 0. -1.
         -6    1    1    2    0  501  0.80903551617E+01 -0.32082661247E+03  0.44538160272E+03  0.57527727328E+03  0.17200000000E+03 0.  1.
</event>
<event>
 4    1  0.3196149E-002  0.1886645E+03  0.7818608E-02  0.1159671E+00
          1   -1    0    0  502    0  0.00000000000E+00  0.00000000000E+00  0.12635129759E+03  0.12635129759E+03  0.00000000000E+00 0. -1.
         -1   -1    0    0    0  501 -0.00000000000E+00 -0.00000000000E+00 -0.36240035125E+03  0.36240035125E+03  0.00000000000E+00 0.  1.
          6    1    1    2  502    0 -0.72193128701E+02  0.28256617110E+02 -0.27116743237E+01  0.18868396175E+03  0.17200000000E+03 0. -1.
         -6    1    1    2    0  501  0.72193128701E+02 -0.28256617110E+02 -0.23333737934E+03  0.30006768709E+03  0.17200000000E+03 0.  1.
</event>
<event>
 4    1  0.3196149E-002  0.3710653E+03  0.7818608E-02  0.1054286E+00
          2   -1    0    0  502    0  0.00000000000E+00  0.00000000000E+00  0.93216011400E+03  0.93216011400E+03  0.00000000000E+00 0. -1.
         -2   -1    0    0    0  501 -0.00000000000E+00 -0.00000000000E+00 -0.18772819030E+03  0.18772819030E+03  0.00000000000E+00 0.  1.
          6    1    1    2  502    0 -0.17818197929E+03  0.27632703857E+03  0.63074434261E+03  0.73179770136E+03  0.17200000000E+03 0. -1.
         -6    1    1    2    0  501  0.17818197929E+03 -0.27632703857E+03  0.11368758109E+03  0.38809060293E+03  0.17200000000E+03 0.  1.
</event>
<event>
 4    1  0.3196149E-002  0.8681752E+03  0.7818608E-02  0.9466262E-01
         -1   -1    0    0    0  501 -0.00000000000E+00  0.00000000000E+00  0.10072298639E+04  0.10072298639E+04  0.00000000000E+00 0.  1.
          1   -1    0    0  502    0  0.00000000000E+00 -0.00000000000E+00 -0.78585801957E+03  0.78585801957E+03  0.00000000000E+00 0. -1.
          6    1    1    2  502    0  0.43405335322E+03 -0.73194389853E+03 -0.85264899424E+02  0.87235215774E+03  0.17200000000E+03 0. -1.
         -6    1    1    2    0  501 -0.43405335322E+03  0.73194389853E+03  0.30663674378E+03  0.92073572575E+03  0.17200000000E+03 0.  1.
</event>
<event>
 4    1  0.3196149E-002  0.3476236E+03  0.7818608E-02  0.1063595E+00
          1   -1    0    0  502    0  0.00000000000E+00  0.00000000000E+00  0.46883626307E+03  0.46883626307E+03  0.00000000000E+00 0. -1.
         -1   -1    0    0    0  501 -0.00000000000E+00 -0.00000000000E+00 -0.25817614219E+03  0.25817614219E+03  0.00000000000E+00 0.  1.
          6    1    1    2  502    0 -0.13814144054E+03  0.26865422600E+03  0.12011300954E+03  0.36778973042E+03  0.17200000000E+03 0. -1.
         -6    1    1    2    0  501  0.13814144054E+03 -0.26865422600E+03  0.90547111332E+02  0.35922267483E+03  0.17200000000E+03 0.  1.
</event>
<event>
 4    1  0.3196149E-002  0.2560966E+03  0.7818608E-02  0.1109511E+00
         -2   -1    0    0    0  501 -0.00000000000E+00  0.00000000000E+00  0.49309876941E+02  0.49309876941E+02  0.00000000000E+00 0.  1.
          2   -1    0    0  502    0  0.00000000000E+00 -0.00000000000E+00 -0.37150047869E+04  0.37150047869E+04  0.00000000000E+00 0. -1.
          6    1    1    2  502    0 -0.11893319894E+03  0.14783905401E+03 -0.33408937256E+04  0.33506949097E+04  0.17200000000E+03 0. -1.
         -6    1    1    2    0  501  0.11893319894E+03 -0.14783905401E+03 -0.32480118432E+03  0.41361975416E+03  0.17200000000E+03 0.  1.
</event>
<event>
 4    1  0.3196149E-002  0.2185135E+03  0.7818608E-02  0.1134996E+00
         -2   -1    0    0    0  501 -0.00000000000E+00  0.00000000000E+00  0.44102617838E+02  0.44102617838E+02  0.00000000000E+00 0.  1.
          2   -1    0    0  502    0  0.00000000000E+00 -0.00000000000E+00 -0.10997340779E+04  0.10997340779E+04  0.00000000000E+00 0. -1.
          6    1    1    2  502    0  0.12491392387E+02  0.13419437013E+03 -0.45655471516E+03  0.50615251831E+03  0.17200000000E+03 0. -1.
         -6    1    1    2    0  501 -0.12491392387E+02 -0.13419437013E+03 -0.59907674490E+03  0.63768417742E+03  0.17200000000E+03 0.  1.
</event>
<event>
 4    1  0.3196149E-002  0.1975018E+03  0.7818608E-02  0.1151864E+00
          2   -1    0    0  502    0  0.00000000000E+00  0.00000000000E+00  0.46124415232E+03  0.46124415232E+03  0.00000000000E+00 0. -1.
         -2   -1    0    0    0  501 -0.00000000000E+00 -0.00000000000E+00 -0.10698587680E+03  0.10698587680E+03  0.00000000000E+00 0.  1.
          6    1    1    2  502    0  0.89060346654E+02  0.38616430178E+02  0.30718147133E+03  0.36519505795E+03  0.17200000000E+03 0. -1.
         -6    1    1    2    0  501 -0.89060346654E+02 -0.38616430178E+02  0.47076804189E+02  0.20303497117E+03  0.17200000000E+03 0.  1.
</event>
<event>
 4    1  0.3196149E-002  0.1984097E+03  0.7818608E-02  0.1151088E+00
         -2   -1    0    0    0  501 -0.00000000000E+00  0.00000000000E+00  0.81660340195E+02  0.81660340195E+02  0.00000000000E+00 0.  1.
          2   -1    0    0  502    0  0.00000000000E+00 -0.00000000000E+00 -0.48553820169E+03  0.48553820169E+03  0.00000000000E+00 0. -1.
          6    1    1    2  502    0  0.97715200575E+02 -0.15302250483E+02 -0.17798791084E+03  0.26654477241E+03  0.17200000000E+03 0.  1.
         -6    1    1    2    0  501 -0.97715200575E+02  0.15302250483E+02 -0.22588995066E+03  0.30065376948E+03  0.17200000000E+03 0. -1.
</event>
<event>
 4    1  0.3196149E-002  0.1737442E+03  0.7818608E-02  0.1173999E+00
          1   -1    0    0  502    0  0.00000000000E+00  0.00000000000E+00  0.16715535068E+04  0.16715535068E+04  0.00000000000E+00 0. -1.
         -1   -1    0    0    0  501 -0.00000000000E+00 -0.00000000000E+00 -0.26772674629E+02  0.26772674629E+02  0.00000000000E+00 0.  1.
          6    1    1    2  502    0  0.23342715831E+02 -0.76265491599E+01  0.13068293202E+04  0.13183284563E+04  0.17200000000E+03 0. -1.
         -6    1    1    2    0  501 -0.23342715831E+02  0.76265491599E+01  0.33795151194E+03  0.37999772507E+03  0.17200000000E+03 0.  1.
</event>
<event>
 4    1  0.3196149E-002  0.1761122E+03  0.7818608E-02  0.1171620E+00
         -2   -1    0    0    0  501 -0.00000000000E+00  0.00000000000E+00  0.50700312019E+02  0.50700312019E+02  0.00000000000E+00 0.  1.
          2   -1    0    0  502    0  0.00000000000E+00 -0.00000000000E+00 -0.63622313450E+03  0.63622313450E+03  0.00000000000E+00 0. -1.
          6    1    1    2  502    0 -0.30802373746E+02 -0.21970760642E+02 -0.36013521808E+03  0.40089010446E+03  0.17200000000E+03 0.  1.
         -6    1    1    2    0  501  0.30802373746E+02  0.21970760642E+02 -0.22538760440E+03  0.28603334205E+03  0.17200000000E+03 0.  1.
</event>
<event>
 4    1  0.3196149E-002  0.3012214E+03  0.7818608E-02  0.1084632E+00
          1   -1    0    0  502    0  0.00000000000E+00  0.00000000000E+00  0.44044472710E+03  0.44044472710E+03  0.00000000000E+00 0. -1.
         -1   -1    0    0    0  501 -0.00000000000E+00 -0.00000000000E+00 -0.49778064308E+03  0.49778064308E+03  0.00000000000E+00 0.  1.
          6    1    1    2  502    0  0.11105485013E+03 -0.22094602469E+03  0.33048697094E+03  0.44716435851E+03  0.17200000000E+03 0. -1.
         -6    1    1    2    0  501 -0.11105485013E+03  0.22094602469E+03 -0.38782288692E+03  0.49106101167E+03  0.17200000000E+03 0.  1.
</event>
<event>
 4    1  0.3196149E-002  0.2878483E+03  0.7818608E-02  0.1091478E+00
          1   -1    0    0  502    0  0.00000000000E+00  0.00000000000E+00  0.19245878629E+04  0.19245878629E+04  0.00000000000E+00 0. -1.
         -1   -1    0    0    0  501 -0.00000000000E+00 -0.00000000000E+00 -0.49365124591E+02  0.49365124591E+02  0.00000000000E+00 0.  1.
          6    1    1    2  502    0 -0.23035528546E+03  0.14459000595E+02  0.12905766855E+04  0.13222877150E+04  0.17200000000E+03 0. -1.
         -6    1    1    2    0  501  0.23035528546E+03 -0.14459000595E+02  0.58464605289E+03  0.65166527252E+03  0.17200000000E+03 0.  1.
</event>
<event>
 4    1  0.3196149E-002  0.2383230E+03  0.7818608E-02  0.1120915E+00
         -2   -1    0    0    0  501 -0.00000000000E+00  0.00000000000E+00  0.28553565565E+02  0.28553565565E+02  0.00000000000E+00 0.  1.
          2   -1    0    0  502    0  0.00000000000E+00 -0.00000000000E+00 -0.20603845002E+04  0.20603845002E+04  0.00000000000E+00 0. -1.
          6    1    1    2  502    0  0.95915887333E+02  0.13421624200E+03 -0.82173309333E+03  0.85559519268E+03  0.17200000000E+03 0. -1.
         -6    1    1    2    0  501 -0.95915887333E+02 -0.13421624200E+03 -0.12100978413E+04  0.12333428731E+04  0.17200000000E+03 0.  1.
</event>
<event>
 4    1  0.3196149E-002  0.3788520E+03  0.7818608E-02  0.1051359E+00
         -2   -1    0    0    0  501 -0.00000000000E+00  0.00000000000E+00  0.11534798683E+03  0.11534798683E+03  0.00000000000E+00 0.  1.
          2   -1    0    0  502    0  0.00000000000E+00 -0.00000000000E+00 -0.13280640628E+04  0.13280640628E+04  0.00000000000E+00 0. -1.
          6    1    1    2  502    0 -0.16992111957E+03 -0.29167043063E+03 -0.78759628814E+03  0.87397753980E+03  0.17200000000E+03 0. -1.
         -6    1    1    2    0  501  0.16992111957E+03  0.29167043063E+03 -0.42511978783E+03  0.56943450983E+03  0.17200000000E+03 0.  1.
</event>
<event>
 4    1  0.3196149E-002  0.2035989E+03  0.7818608E-02  0.1146738E+00
          2   -1    0    0  502    0  0.00000000000E+00  0.00000000000E+00  0.64624271571E+03  0.64624271571E+03  0.00000000000E+00 0. -1.
         -2   -1    0    0    0  501 -0.00000000000E+00 -0.00000000000E+00 -0.22400320190E+03  0.22400320190E+03  0.00000000000E+00 0.  1.
          6    1    1    2  502    0 -0.81746830493E+02  0.72013717221E+02  0.57870143792E+03  0.61347198307E+03  0.17200000000E+03 0. -1.
         -6    1    1    2    0  501  0.81746830493E+02 -0.72013717221E+02 -0.15646192411E+03  0.25677393454E+03  0.17200000000E+03 0.  1.
</event>
<event>
 4    1  0.3196149E-002  0.2359867E+03  0.7818608E-02  0.1122496E+00
         -2   -1    0    0    0  501 -0.00000000000E+00  0.00000000000E+00  0.61684012459E+02  0.61684012459E+02  0.00000000000E+00 0.  1.
          2   -1    0    0  502    0  0.00000000000E+00 -0.00000000000E+00 -0.18125726360E+04  0.18125726360E+04  0.00000000000E+00 0. -1.
          6    1    1    2  502    0  0.64700866390E+02  0.14805235351E+03 -0.15393592937E+04  0.15573428449E+04  0.17200000000E+03 0. -1.
         -6    1    1    2    0  501 -0.64700866390E+02 -0.14805235351E+03 -0.21152932981E+03  0.31691380352E+03  0.17200000000E+03 0.  1.
</event>
<event>
 4    1  0.3196149E-002  0.3042759E+03  0.7818608E-02  0.1083122E+00
         -2   -1    0    0    0  501 -0.00000000000E+00  0.00000000000E+00  0.86068173748E+03  0.86068173748E+03  0.00000000000E+00 0.  1.
          2   -1    0    0  502    0  0.00000000000E+00 -0.00000000000E+00 -0.47066373330E+03  0.47066373330E+03  0.00000000000E+00 0. -1.
          6    1    1    2  502    0 -0.17666235747E+03  0.17829817093E+03 -0.38966606718E+03  0.49439202079E+03  0.17200000000E+03 0. -1.
         -6    1    1    2    0  501  0.17666235747E+03 -0.17829817093E+03  0.77968407137E+03  0.83695344999E+03  0.17200000000E+03 0.  1.
</event>
<event>
 4    1  0.3196149E-002  0.3252447E+03  0.7818608E-02  0.1073261E+00
         -1   -1    0    0    0  501 -0.00000000000E+00  0.00000000000E+00  0.31994912544E+03  0.31994912544E+03  0.00000000000E+00 0.  1.
          1   -1    0    0  502    0  0.00000000000E+00 -0.00000000000E+00 -0.44970218725E+03  0.44970218725E+03  0.00000000000E+00 0. -1.
          6    1    1    2  502    0  0.24907672419E+03  0.11899955448E+03 -0.26289719295E+03  0.41820932864E+03  0.17200000000E+03 0.  1.
         -6    1    1    2    0  501 -0.24907672419E+03 -0.11899955448E+03  0.13314413114E+03  0.35144198405E+03  0.17200000000E+03 0.  1.
</event>
<event>
 4    1  0.3196149E-002  0.3030580E+03  0.7818608E-02  0.1083722E+00
          1   -1    0    0  502    0  0.00000000000E+00  0.00000000000E+00  0.66855415165E+03  0.66855415165E+03  0.00000000000E+00 0. -1.
         -1   -1    0    0    0  501 -0.00000000000E+00 -0.00000000000E+00 -0.13870499008E+03  0.13870499008E+03  0.00000000000E+00 0.  1.
          6    1    1    2  502    0 -0.24755575778E+03  0.31246138843E+02  0.22543497429E+03  0.37771034144E+03  0.17200000000E+03 0. -1.
         -6    1    1    2    0  501  0.24755575778E+03 -0.31246138843E+02  0.30441418728E+03  0.42954880028E+03  0.17200000000E+03 0. -1.
</event>
<event>
 4    1  0.3196149E-002  0.1854609E+03  0.7818608E-02  0.1162620E+00
          1   -1    0    0  502    0  0.00000000000E+00  0.00000000000E+00  0.10802799547E+03  0.10802799547E+03  0.00000000000E+00 0. -1.
         -1   -1    0    0    0  501 -0.00000000000E+00 -0.00000000000E+00 -0.37124731240E+03  0.37124731240E+03  0.00000000000E+00 0.  1.
          6    1    1    2  502    0  0.55691305631E+02  0.41355036356E+02 -0.41193034530E+02  0.18998059545E+03  0.17200000000E+03 0. -1.
         -6    1    1    2    0  501 -0.55691305631E+02 -0.41355036356E+02 -0.22202628240E+03  0.28929471242E+03  0.17200000000E+03 0.  1.
</event>
<event>
 4    1  0.3196149E-002  0.4259386E+03  0.7818608E-02  0.1035151E+00
         -2   -1    0    0    0  501 -0.00000000000E+00  0.00000000000E+00  0.23724257853E+03  0.23724257853E+03  0.00000000000E+00 0.  1.
          2   -1    0    0  502    0  0.00000000000E+00 -0.00000000000E+00 -0.11227548413E+04  0.11227548413E+04  0.00000000000E+00 0. -1.
          6    1    1    2  502    0  0.33700950653E+03 -0.19561257646E+03 -0.82675454889E+03  0.93002514572E+03  0.17200000000E+03 0. -1.
         -6    1    1    2    0  501 -0.33700950653E+03  0.19561257646E+03 -0.58757713887E+02  0.42997227411E+03  0.17200000000E+03 0.  1.
</event>
<event>
 4    1  0.3196149E-002  0.6229210E+03  0.7818608E-02  0.9858961E-01
          2   -1    0    0  502    0  0.00000000000E+00  0.00000000000E+00  0.22451237924E+04  0.22451237924E+04  0.00000000000E+00 0. -1.
         -2   -1    0    0    0  501 -0.00000000000E+00 -0.00000000000E+00 -0.22668466179E+03  0.22668466179E+03  0.00000000000E+00 0.  1.
          6    1    1    2  502    0  0.38583870274E+03  0.45779370309E+03  0.16116056396E+04  0.17278030318E+04  0.17200000000E+03 0. -1.
         -6    1    1    2    0  501 -0.38583870274E+03 -0.45779370309E+03  0.40683349099E+03  0.74400542237E+03  0.17200000000E+03 0.  1.
</event>
<event>
 4    1  0.3196149E-002  0.2020648E+03  0.7818608E-02  0.1148009E+00
          1   -1    0    0  502    0  0.00000000000E+00  0.00000000000E+00  0.33361284823E+03  0.33361284823E+03  0.00000000000E+00 0. -1.
         -1   -1    0    0    0  501 -0.00000000000E+00 -0.00000000000E+00 -0.34581047529E+03  0.34581047529E+03  0.00000000000E+00 0.  1.
          6    1    1    2  502    0  0.81472582922E+02 -0.67885082376E+02  0.26695920753E+03  0.33480947517E+03  0.17200000000E+03 0. -1.
         -6    1    1    2    0  501 -0.81472582922E+02  0.67885082376E+02 -0.27915683459E+03  0.34461384835E+03  0.17200000000E+03 0.  1.
</event>
<event>
 4    1  0.3196149E-002  0.2684184E+03  0.7818608E-02  0.1102188E+00
         -2   -1    0    0    0  501 -0.00000000000E+00  0.00000000000E+00  0.29001569470E+02  0.29001569470E+02  0.00000000000E+00 0.  1.
          2   -1    0    0  502    0  0.00000000000E+00 -0.00000000000E+00 -0.28823922723E+04  0.28823922723E+04  0.00000000000E+00 0. -1.
          6    1    1    2  502    0  0.76502256608E+02 -0.19134226950E+03 -0.19676849580E+04  0.19859084957E+04  0.17200000000E+03 0.  1.
         -6    1    1    2    0  501 -0.76502256608E+02  0.19134226950E+03 -0.88570574483E+03  0.92548534607E+03  0.17200000000E+03 0.  1.
</event>
<event>
 4    1  0.3196149E-002  0.1942631E+03  0.7818608E-02  0.1154672E+00
         -2   -1    0    0    0  501 -0.00000000000E+00  0.00000000000E+00  0.24616849874E+02  0.24616849874E+02  0.00000000000E+00 0.  1.
          2   -1    0    0  502    0  0.00000000000E+00 -0.00000000000E+00 -0.31708451800E+04  0.31708451800E+04  0.00000000000E+00 0. -1.
          6    1    1    2  502    0  0.23467169019E+02  0.87197734412E+02 -0.27213993423E+04  0.27283241254E+04  0.17200000000E+03 0. -1.
         -6    1    1    2    0  501 -0.23467169019E+02 -0.87197734412E+02 -0.42482898781E+03  0.46713790447E+03  0.17200000000E+03 0.  1.
</event>
<event>
 4    1  0.3196149E-002  0.4430384E+03  0.7818608E-02  0.1029819E+00
         -1   -1    0    0    0  501 -0.00000000000E+00  0.00000000000E+00  0.21892852121E+03  0.21892852121E+03  0.00000000000E+00 0.  1.
          1   -1    0    0  502    0  0.00000000000E+00 -0.00000000000E+00 -0.18666292628E+04  0.18666292628E+04  0.00000000000E+00 0. -1.
          6    1    1    2  502    0 -0.56080911783E+02 -0.40441809922E+03 -0.15755841131E+04  0.16366882308E+04  0.17200000000E+03 0. -1.
         -6    1    1    2    0  501  0.56080911783E+02  0.40441809922E+03 -0.72116628530E+02  0.44886955316E+03  0.17200000000E+03 0.  1.
</event>
<event>
 4    1  0.3196149E-002  0.4025322E+03  0.7818608E-02  0.1042906E+00
          2   -1    0    0  502    0  0.00000000000E+00  0.00000000000E+00  0.19936993493E+04  0.19936993493E+04  0.00000000000E+00 0. -1.
         -2   -1    0    0    0  501 -0.00000000000E+00 -0.00000000000E+00 -0.11526034221E+03  0.11526034221E+03  0.00000000000E+00 0.  1.
          6    1    1    2  502    0 -0.54656826326E+02 -0.35980659572E+03  0.15118343613E+04  0.15645048069E+04  0.17200000000E+03 0. -1.
         -6    1    1    2    0  501  0.54656826326E+02  0.35980659572E+03  0.36660464578E+03  0.54445488454E+03  0.17200000000E+03 0.  1.
</event>
<event>
 4    1  0.3196149E-002  0.3398721E+03  0.7818608E-02  0.1066850E+00
          1   -1    0    0  502    0  0.00000000000E+00  0.00000000000E+00  0.62542857508E+03  0.62542857508E+03  0.00000000000E+00 0. -1.
         -1   -1    0    0    0  501 -0.00000000000E+00 -0.00000000000E+00 -0.28429501382E+03  0.28429501382E+03  0.00000000000E+00 0.  1.
          6    1    1    2  502    0  0.19017546545E+03 -0.22307468786E+03  0.43979854944E+03  0.55581992417E+03  0.17200000000E+03 0. -1.
         -6    1    1    2    0  501 -0.19017546545E+03  0.22307468786E+03 -0.98664988176E+02  0.35390366473E+03  0.17200000000E+03 0.  1.
</event>
<event>
 4    1  0.3196149E-002  0.2774267E+03  0.7818608E-02  0.1097103E+00
          2   -1    0    0  502    0  0.00000000000E+00  0.00000000000E+00  0.31284113947E+03  0.31284113947E+03  0.00000000000E+00 0. -1.
         -2   -1    0    0    0  501 -0.00000000000E+00 -0.00000000000E+00 -0.55789991725E+03  0.55789991725E+03  0.00000000000E+00 0.  1.
          6    1    1    2  502    0  0.91207093825E+02  0.19764323696E+03  0.20298761541E+03  0.34375798912E+03  0.17200000000E+03 0. -1.
         -6    1    1    2    0  501 -0.91207093825E+02 -0.19764323696E+03 -0.44804639319E+03  0.52698306759E+03  0.17200000000E+03 0.  1.
</event>
<event>
 4    1  0.3196149E-002  0.1893631E+03  0.7818608E-02  0.1159037E+00
         -2   -1    0    0    0  501 -0.00000000000E+00  0.00000000000E+00  0.33902104525E+03  0.33902104525E+03  0.00000000000E+00 0.  1.
          2   -1    0    0  502    0  0.00000000000E+00 -0.00000000000E+00 -0.66346326556E+03  0.66346326556E+03  0.00000000000E+00 0. -1.
          6    1    1    2  502    0  0.10681298590E+02  0.78487445485E+02 -0.62177528713E+03  0.64997144316E+03  0.17200000000E+03 0. -1.
         -6    1    1    2    0  501 -0.10681298590E+02 -0.78487445485E+02  0.29733306682E+03  0.35251286766E+03  0.17200000000E+03 0.  1.
</event>
<event>
 4    1  0.3196149E-002  0.2288017E+03  0.7818608E-02  0.1127486E+00
          2   -1    0    0  502    0  0.00000000000E+00  0.00000000000E+00  0.60121481526E+03  0.60121481526E+03  0.00000000000E+00 0. -1.
         -2   -1    0    0    0  501 -0.00000000000E+00 -0.00000000000E+00 -0.87158251052E+02  0.87158251052E+02  0.00000000000E+00 0.  1.
          6    1    1    2  502    0 -0.12533464735E+03  0.84008597603E+02  0.26772518376E+03  0.35217466166E+03  0.17200000000E+03 0. -1.
         -6    1    1    2    0  501  0.12533464735E+03 -0.84008597603E+02  0.24633138045E+03  0.33619840465E+03  0.17200000000E+03 0.  1.
</event>
<event>
 4    1  0.3196149E-002  0.2338510E+03  0.7818608E-02  0.1123958E+00
         -1   -1    0    0    0  501 -0.00000000000E+00  0.00000000000E+00  0.13897401673E+03  0.13897401673E+03  0.00000000000E+00 0.  1.
          1   -1    0    0  502    0  0.00000000000E+00 -0.00000000000E+00 -0.79172730328E+03  0.79172730328E+03  0.00000000000E+00 0. -1.
          6    1    1    2  502    0  0.89817306832E+02 -0.13051870320E+03 -0.65641013962E+03  0.69682175044E+03  0.17200000000E+03 0. -1.
         -6    1    1    2    0  501 -0.89817306832E+02  0.13051870320E+03  0.36568530713E+01  0.23387956958E+03  0.17200000000E+03 0.  1.
</event>
<event>
 4    1  0.3196149E-002  0.3340558E+03  0.7818608E-02  0.1069356E+00
          1   -1    0    0  502    0  0.00000000000E+00  0.00000000000E+00  0.36004902554E+03  0.36004902554E+03  0.00000000000E+00 0. -1.
         -1   -1    0    0    0  501 -0.00000000000E+00 -0.00000000000E+00 -0.31341683548E+03  0.31341683548E+03  0.00000000000E+00 0.  1.
          6    1    1    2  502    0 -0.26348900569E+03  0.11217323129E+03 -0.12154576103E+02  0.33427686678E+03  0.17200000000E+03 0. -1.
         -6    1    1    2    0  501  0.26348900569E+03 -0.11217323129E+03  0.58786766159E+02  0.33918899424E+03  0.17200000000E+03 0.  1.
</event>
<event>
 4    1  0.3196149E-002  0.2243713E+03  0.7818608E-02  0.1130665E+00
         -1   -1    0    0    0  501 -0.00000000000E+00  0.00000000000E+00  0.54621919800E+02  0.54621919800E+02  0.00000000000E+00 0.  1.
          1   -1    0    0  502    0  0.00000000000E+00 -0.00000000000E+00 -0.10680564169E+04  0.10680564169E+04  0.00000000000E+00 0. -1.
          6    1    1    2  502    0  0.14406844107E+03 -0.16670015029E+01 -0.29888984356E+03  0.37373470964E+03  0.17200000000E+03 0. -1.
         -6    1    1    2    0  501 -0.14406844107E+03  0.16670015029E+01 -0.71454465351E+03  0.74894362703E+03  0.17200000000E+03 0.  1.
</event>
<event>
 4    1  0.3196149E-002  0.1804421E+03  0.7818608E-02  0.1167376E+00
         -2   -1    0    0    0  501 -0.00000000000E+00  0.00000000000E+00  0.85328491457E+02  0.85328491457E+02  0.00000000000E+00 0.  1.
          2   -1    0    0  502    0  0.00000000000E+00 -0.00000000000E+00 -0.57561180910E+03  0.57561180910E+03  0.00000000000E+00 0. -1.
          6    1    1    2  502    0  0.52318519019E+02 -0.15430958043E+02 -0.43701199753E+03  0.47279892966E+03  0.17200000000E+03 0. -1.
         -6    1    1    2    0  501 -0.52318519019E+02  0.15430958043E+02 -0.53271320114E+02  0.18814137090E+03  0.17200000000E+03 0.  1.
</event>
<event>
 4    1  0.3196149E-002  0.1834348E+03  0.7818608E-02  0.1164520E+00
         -1   -1    0    0    0  501 -0.00000000000E+00  0.00000000000E+00  0.57291488273E+02  0.57291488273E+02  0.00000000000E+00 0.  1.
          1   -1    0    0  502    0  0.00000000000E+00 -0.00000000000E+00 -0.11751081697E+04  0.11751081697E+04  0.00000000000E+00 0. -1.
          6    1    1    2  502    0  0.34943313203E+02  0.53322480125E+02 -0.99471494946E+03  0.10114870996E+04  0.17200000000E+03 0. -1.
         -6    1    1    2    0  501 -0.34943313203E+02 -0.53322480125E+02 -0.12310173197E+03  0.22091255836E+03  0.17200000000E+03 0.  1.
</event>
<event>
 4    1  0.3196149E-002  0.5815137E+03  0.7818608E-02  0.9944519E-01
         -1   -1    0    0    0  501 -0.00000000000E+00  0.00000000000E+00  0.58818431408E+03  0.58818431408E+03  0.00000000000E+00 0.  1.
          1   -1    0    0  502    0  0.00000000000E+00 -0.00000000000E+00 -0.57904561769E+03  0.57904561769E+03  0.00000000000E+00 0. -1.
          6    1    1    2  502    0 -0.43622598438E+03 -0.34392016556E+03 -0.44700404562E+02  0.58322921386E+03  0.17200000000E+03 0. -1.
         -6    1    1    2    0  501  0.43622598438E+03  0.34392016556E+03  0.53839100957E+02  0.58400071791E+03  0.17200000000E+03 0.  1.
</event>
<event>
 4    1  0.3196149E-002  0.1944995E+03  0.7818608E-02  0.1154465E+00
          2   -1    0    0  502    0  0.00000000000E+00  0.00000000000E+00  0.27954629248E+04  0.27954629248E+04  0.00000000000E+00 0. -1.
         -2   -1    0    0    0  501 -0.00000000000E+00 -0.00000000000E+00 -0.17277346230E+02  0.17277346230E+02  0.00000000000E+00 0.  1.
          6    1    1    2  502    0 -0.80570857598E+02 -0.41885420580E+02  0.20438326589E+04  0.20530664843E+04  0.17200000000E+03 0. -1.
         -6    1    1    2    0  501  0.80570857598E+02  0.41885420580E+02  0.73435291971E+03  0.75967378673E+03  0.17200000000E+03 0.  1.
</event>
<event>
 4    1  0.3196149E-002  0.2146745E+03  0.7818608E-02  0.1137917E+00
          2   -1    0    0  502    0  0.00000000000E+00  0.00000000000E+00  0.23612827229E+04  0.23612827229E+04  0.00000000000E+00 0. -1.
         -2   -1    0    0    0  501 -0.00000000000E+00 -0.00000000000E+00 -0.88867706210E+02  0.88867706210E+02  0.00000000000E+00 0.  1.
          6    1    1    2  502    0  0.65992296718E+02  0.11020965601E+03  0.22184291553E+04  0.22287918405E+04  0.17200000000E+03 0. -1.
         -6    1    1    2    0  501 -0.65992296718E+02 -0.11020965601E+03  0.53985861428E+02  0.22135858858E+03  0.17200000000E+03 0.  1.
</event>
<event>
 4    1  0.3196149E-002  0.3933870E+03  0.7818608E-02  0.1046094E+00
          2   -1    0    0  502    0  0.00000000000E+00  0.00000000000E+00  0.96611952103E+03  0.96611952103E+03  0.00000000000E+00 0. -1.
         -2   -1    0    0    0  501 -0.00000000000E+00 -0.00000000000E+00 -0.16202566067E+03  0.16202566067E+03  0.00000000000E+00 0.  1.
          6    1    1    2  502    0  0.11417853569E+03  0.33486210528E+03  0.34184959181E+03  0.52116649066E+03  0.17200000000E+03 0.  1.
         -6    1    1    2    0  501 -0.11417853569E+03 -0.33486210528E+03  0.46224426855E+03  0.60697869104E+03  0.17200000000E+03 0.  1.
</event>
<event>
 4    1  0.3196149E-002  0.1762924E+03  0.7818608E-02  0.1171440E+00
         -1   -1    0    0    0  501 -0.00000000000E+00  0.00000000000E+00  0.16552354117E+02  0.16552354117E+02  0.00000000000E+00 0.  1.
          1   -1    0    0  502    0  0.00000000000E+00 -0.00000000000E+00 -0.19391141409E+04  0.19391141409E+04  0.00000000000E+00 0. -1.
          6    1    1    2  502    0 -0.16191711242E+02 -0.35111784863E+02 -0.78714643647E+03  0.80664646618E+03  0.17200000000E+03 0.  1.
         -6    1    1    2    0  501  0.16191711242E+02  0.35111784863E+02 -0.11354153503E+04  0.11490200288E+04  0.17200000000E+03 0. -1.
</event>
<event>
 4    1  0.3196149E-002  0.2035223E+03  0.7818608E-02  0.1146801E+00
          1   -1    0    0  502    0  0.00000000000E+00  0.00000000000E+00  0.98070659728E+02  0.98070659728E+02  0.00000000000E+00 0. -1.
         -1   -1    0    0    0  501 -0.00000000000E+00 -0.00000000000E+00 -0.46747102976E+03  0.46747102976E+03  0.00000000000E+00 0.  1.
          6    1    1    2  502    0  0.23341142216E+02  0.10626626881E+03 -0.96860941221E+02  0.22539603089E+03  0.17200000000E+03 0. -1.
         -6    1    1    2    0  501 -0.23341142216E+02 -0.10626626881E+03 -0.27253942881E+03  0.34014565859E+03  0.17200000000E+03 0.  1.
</event>
<event>
 4    1  0.3196149E-002  0.2016929E+03  0.7818608E-02  0.1148318E+00
          2   -1    0    0  502    0  0.00000000000E+00  0.00000000000E+00  0.15426867556E+04  0.15426867556E+04  0.00000000000E+00 0. -1.
         -2   -1    0    0    0  501 -0.00000000000E+00 -0.00000000000E+00 -0.27497869357E+02  0.27497869357E+02  0.00000000000E+00 0.  1.
          6    1    1    2  502    0 -0.34400223288E+02 -0.99562385780E+02  0.91662338991E+03  0.93855126816E+03  0.17200000000E+03 0. -1.
         -6    1    1    2    0  501  0.34400223288E+02  0.99562385780E+02  0.59856549632E+03  0.63163335679E+03  0.17200000000E+03 0.  1.
</event>
<event>
 4    1  0.3196149E-002  0.2754235E+03  0.7818608E-02  0.1098215E+00
          2   -1    0    0  502    0  0.00000000000E+00  0.00000000000E+00  0.80394917622E+02  0.80394917622E+02  0.00000000000E+00 0. -1.
         -2   -1    0    0    0  501 -0.00000000000E+00 -0.00000000000E+00 -0.94560745263E+03  0.94560745263E+03  0.00000000000E+00 0.  1.
          6    1    1    2  502    0  0.17929109321E+03 -0.11886455422E+03 -0.40878247859E+03  0.49291093836E+03  0.17200000000E+03 0. -1.
         -6    1    1    2    0  501 -0.17929109321E+03  0.11886455422E+03 -0.45643005642E+03  0.53309143189E+03  0.17200000000E+03 0.  1.
</event>
<event>
 4    1  0.3196149E-002  0.1746502E+03  0.7818608E-02  0.1173083E+00
          1   -1    0    0  502    0  0.00000000000E+00  0.00000000000E+00  0.37361601473E+03  0.37361601473E+03  0.00000000000E+00 0. -1.
         -1   -1    0    0    0  501 -0.00000000000E+00 -0.00000000000E+00 -0.86564834094E+02  0.86564834094E+02  0.00000000000E+00 0.  1.
          6    1    1    2  502    0  0.67205307097E+01 -0.29555656533E+02  0.19839648510E+03  0.26431773997E+03  0.17200000000E+03 0. -1.
         -6    1    1    2    0  501 -0.67205307097E+01  0.29555656533E+02  0.88654695535E+02  0.19586310885E+03  0.17200000000E+03 0.  1.
</event>
<event>
 4    1  0.3196149E-002  0.2511974E+03  0.7818608E-02  0.1112550E+00
          1   -1    0    0  502    0  0.00000000000E+00  0.00000000000E+00  0.23742906057E+04  0.23742906057E+04  0.00000000000E+00 0. -1.
         -1   -1    0    0    0  501 -0.00000000000E+00 -0.00000000000E+00 -0.95757780067E+02  0.95757780067E+02  0.00000000000E+00 0.  1.
          6    1    1    2  502    0 -0.82117863608E+02 -0.16362392159E+03  0.21890094328E+04  0.22033752355E+04  0.17200000000E+03 0. -1.
         -6    1    1    2    0  501  0.82117863608E+02  0.16362392159E+03  0.89523392827E+02  0.26667315033E+03  0.17200000000E+03 0.  1.
</event>
<event>
 4    1  0.3196149E-002  0.2541889E+03  0.7818608E-02  0.1110686E+00
         -1   -1    0    0    0  501 -0.00000000000E+00  0.00000000000E+00  0.46071311600E+03  0.46071311600E+03  0.00000000000E+00 0.  1.
          1   -1    0    0  502    0  0.00000000000E+00 -0.00000000000E+00 -0.69148839145E+03  0.69148839145E+03  0.00000000000E+00 0. -1.
          6    1    1    2  502    0  0.11380818336E+03 -0.14857886813E+03 -0.62976081939E+03  0.67912493128E+03  0.17200000000E+03 0. -1.
         -6    1    1    2    0  501 -0.11380818336E+03  0.14857886813E+03  0.39898554393E+03  0.47307657617E+03  0.17200000000E+03 0.  1.
</event>
<event>
 4    1  0.3196149E-002  0.1991882E+03  0.7818608E-02  0.1150426E+00
         -2   -1    0    0    0  501 -0.00000000000E+00  0.00000000000E+00  0.38242163243E+02  0.38242163243E+02  0.00000000000E+00 0.  1.
          2   -1    0    0  502    0  0.00000000000E+00 -0.00000000000E+00 -0.24355430189E+04  0.24355430189E+04  0.00000000000E+00 0. -1.
          6    1    1    2  502    0 -0.18418454032E+01  0.10044183419E+03 -0.21357711271E+04  0.21450394546E+04  0.17200000000E+03 0. -1.
         -6    1    1    2    0  501  0.18418454032E+01 -0.10044183419E+03 -0.26152972852E+03  0.32874572750E+03  0.17200000000E+03 0.  1.
</event>
<event>
 4    1  0.3196149E-002  0.3697886E+03  0.7818608E-02  0.1054774E+00
         -2   -1    0    0    0  501 -0.00000000000E+00  0.00000000000E+00  0.25182544800E+03  0.25182544800E+03  0.00000000000E+00 0.  1.
          2   -1    0    0  502    0  0.00000000000E+00 -0.00000000000E+00 -0.61011384453E+03  0.61011384453E+03  0.00000000000E+00 0. -1.
          6    1    1    2  502    0 -0.28537655883E+03 -0.16037412322E+03 -0.32207182697E+03  0.49038138367E+03  0.17200000000E+03 0. -1.
         -6    1    1    2    0  501  0.28537655883E+03  0.16037412322E+03 -0.36216569565E+02  0.37155790886E+03  0.17200000000E+03 0.  1.
</event>
<event>
 4    1  0.3196149E-002  0.1902588E+03  0.7818608E-02  0.1158228E+00
         -2   -1    0    0    0  501 -0.00000000000E+00  0.00000000000E+00  0.45175488448E+02  0.45175488448E+02  0.00000000000E+00 0.  1.
          2   -1    0    0  502    0  0.00000000000E+00 -0.00000000000E+00 -0.80343086613E+03  0.80343086613E+03  0.00000000000E+00 0. -1.
          6    1    1    2  502    0  0.43816539108E+02 -0.68516552395E+02 -0.35719560200E+03  0.40470619607E+03  0.17200000000E+03 0.  1.
         -6    1    1    2    0  501 -0.43816539108E+02  0.68516552395E+02 -0.40105977568E+03  0.44390015851E+03  0.17200000000E+03 0.  1.
</event>
<event>
 4    1  0.3196149E-002  0.1917788E+03  0.7818608E-02  0.1156867E+00
         -2   -1    0    0    0  501 -0.00000000000E+00  0.00000000000E+00  0.35885796670E+03  0.35885796670E+03  0.00000000000E+00 0.  1.
          2   -1    0    0  502    0  0.00000000000E+00 -0.00000000000E+00 -0.15963405546E+03  0.15963405546E+03  0.00000000000E+00 0. -1.
          6    1    1    2  502    0  0.80141675316E+02 -0.27792751872E+02  0.25472104604E+03  0.31884469021E+03  0.17200000000E+03 0. -1.
         -6    1    1    2    0  501 -0.80141675316E+02  0.27792751872E+02 -0.55497134804E+02  0.19964733194E+03  0.17200000000E+03 0. -1.
</event>
<event>
 4    1  0.3196149E-002  0.4637216E+03  0.7818608E-02  0.1023707E+00
         -1   -1    0    0    0  501 -0.00000000000E+00  0.00000000000E+00  0.23862781140E+03  0.23862781140E+03  0.00000000000E+00 0.  1.
          1   -1    0    0  502    0  0.00000000000E+00 -0.00000000000E+00 -0.11531192617E+04  0.11531192617E+04  0.00000000000E+00 0. -1.
          6    1    1    2  502    0 -0.20109888955E+03 -0.38080571877E+03 -0.78253751715E+03  0.90961680095E+03  0.17200000000E+03 0. -1.
         -6    1    1    2    0  501  0.20109888955E+03  0.38080571877E+03 -0.13195393313E+03  0.48213027212E+03  0.17200000000E+03 0.  1.
</event>
<event>
 4    1  0.3196149E-002  0.2654512E+03  0.7818608E-02  0.1103912E+00
         -1   -1    0    0    0  501 -0.00000000000E+00  0.00000000000E+00  0.55287110917E+02  0.55287110917E+02  0.00000000000E+00 0.  1.
          1   -1    0    0  502    0  0.00000000000E+00 -0.00000000000E+00 -0.13108524227E+04  0.13108524227E+04  0.00000000000E+00 0. -1.
          6    1    1    2  502    0  0.20165998222E+03 -0.14615499564E+02 -0.74150699767E+03  0.78758935293E+03  0.17200000000E+03 0. -1.
         -6    1    1    2    0  501 -0.20165998222E+03  0.14615499564E+02 -0.51405831407E+03  0.57855018064E+03  0.17200000000E+03 0.  1.
</event>
<event>
 4    1  0.3196149E-002  0.1830392E+03  0.7818608E-02  0.1164894E+00
         -2   -1    0    0    0  501 -0.00000000000E+00  0.00000000000E+00  0.15247890308E+02  0.15247890308E+02  0.00000000000E+00 0.  1.
          2   -1    0    0  502    0  0.00000000000E+00 -0.00000000000E+00 -0.22741695117E+04  0.22741695117E+04  0.00000000000E+00 0. -1.
          6    1    1    2  502    0 -0.43086392905E+02  0.45419169370E+02 -0.13399928820E+04  0.13524364170E+04  0.17200000000E+03 0.  1.
         -6    1    1    2    0  501  0.43086392905E+02 -0.45419169370E+02 -0.91892873941E+03  0.93698098503E+03  0.17200000000E+03 0. -1.
</event>
<event>
 4    1  0.3196149E-002  0.1854351E+03  0.7818608E-02  0.1162644E+00
          1   -1    0    0  502    0  0.00000000000E+00  0.00000000000E+00  0.65247763066E+03  0.65247763066E+03  0.00000000000E+00 0. -1.
         -1   -1    0    0    0  501 -0.00000000000E+00 -0.00000000000E+00 -0.83603882361E+02  0.83603882361E+02  0.00000000000E+00 0.  1.
          6    1    1    2  502    0  0.45807407640E+02 -0.51998481914E+02  0.50819708555E+03  0.54097175386E+03  0.17200000000E+03 0. -1.
         -6    1    1    2    0  501 -0.45807407640E+02  0.51998481914E+02  0.60676662748E+02  0.19510975916E+03  0.17200000000E+03 0.  1.
</event>
<event>
 4    1  0.3196149E-002  0.1908570E+03  0.7818608E-02  0.1157691E+00
         -1   -1    0    0    0  501 -0.00000000000E+00  0.00000000000E+00  0.14132667691E+03  0.14132667691E+03  0.00000000000E+00 0.  1.
          1   -1    0    0  502    0  0.00000000000E+00 -0.00000000000E+00 -0.34705733157E+03  0.34705733157E+03  0.00000000000E+00 0. -1.
          6    1    1    2  502    0 -0.51346084038E+02 -0.64853486391E+02 -0.22674040753E+03  0.29637410050E+03  0.17200000000E+03 0. -1.
         -6    1    1    2    0  501  0.51346084038E+02  0.64853486391E+02  0.21009752867E+02  0.19200990797E+03  0.17200000000E+03 0.  1.
</event>
<event>
 4    1  0.3196149E-002  0.1812303E+03  0.7818608E-02  0.1166618E+00
          2   -1    0    0  502    0  0.00000000000E+00  0.00000000000E+00  0.92914854531E+03  0.92914854531E+03  0.00000000000E+00 0. -1.
         -2   -1    0    0    0  501 -0.00000000000E+00 -0.00000000000E+00 -0.90564305775E+02  0.90564305775E+02  0.00000000000E+00 0.  1.
          6    1    1    2  502    0  0.43373713076E+02 -0.37136596178E+02  0.81739872803E+03  0.83724852125E+03  0.17200000000E+03 0. -1.
         -6    1    1    2    0  501 -0.43373713076E+02  0.37136596178E+02  0.21185511504E+02  0.18246432983E+03  0.17200000000E+03 0.  1.
</event>
<event>
 4    1  0.3196149E-002  0.1975347E+03  0.7818608E-02  0.1151836E+00
         -1   -1    0    0    0  501 -0.00000000000E+00  0.00000000000E+00  0.65926703847E+02  0.65926703847E+02  0.00000000000E+00 0.  1.
          1   -1    0    0  502    0  0.00000000000E+00 -0.00000000000E+00 -0.64212935087E+03  0.64212935087E+03  0.00000000000E+00 0. -1.
          6    1    1    2  502    0  0.87693725668E+02  0.41782228445E+02 -0.38714824621E+03  0.43463054274E+03  0.17200000000E+03 0. -1.
         -6    1    1    2    0  501 -0.87693725668E+02 -0.41782228445E+02 -0.18905440082E+03  0.27342551198E+03  0.17200000000E+03 0.  1.
</event>
<event>
 4    1  0.3196149E-002  0.3214606E+03  0.7818608E-02  0.1074979E+00
         -2   -1    0    0    0  501 -0.00000000000E+00  0.00000000000E+00  0.10482000692E+03  0.10482000692E+03  0.00000000000E+00 0.  1.
          2   -1    0    0  502    0  0.00000000000E+00 -0.00000000000E+00 -0.15142623350E+04  0.15142623350E+04  0.00000000000E+00 0. -1.
          6    1    1    2  502    0 -0.15663811773E+03  0.22185001440E+03 -0.11829374521E+04  0.12258376501E+04  0.17200000000E+03 0. -1.
         -6    1    1    2    0  501  0.15663811773E+03 -0.22185001440E+03 -0.22650487604E+03  0.39324469187E+03  0.17200000000E+03 0.  1.
</event>
<event>
 4    1  0.3196149E-002  0.2143396E+03  0.7818608E-02  0.1138175E+00
         -1   -1    0    0    0  501 -0.00000000000E+00  0.00000000000E+00  0.14288760427E+03  0.14288760427E+03  0.00000000000E+00 0.  1.
          1   -1    0    0  502    0  0.00000000000E+00 -0.00000000000E+00 -0.49211173623E+03  0.49211173623E+03  0.00000000000E+00 0. -1.
          6    1    1    2  502    0  0.10390677434E+03  0.74571032716E+02 -0.36154607760E+03  0.42030586827E+03  0.17200000000E+03 0. -1.
         -6    1    1    2    0  501 -0.10390677434E+03 -0.74571032716E+02  0.12321945641E+02  0.21469347223E+03  0.17200000000E+03 0.  1.
</event>
<event>
 4    1  0.3196149E-002  0.2063791E+03  0.7818608E-02  0.1144466E+00
          3   -1    0    0  502    0  0.00000000000E+00  0.00000000000E+00  0.47988659035E+02  0.47988659035E+02  0.00000000000E+00 0. -1.
         -3   -1    0    0    0  501 -0.00000000000E+00 -0.00000000000E+00 -0.13482544180E+04  0.13482544180E+04  0.00000000000E+00 0.  1.
          6    1    1    2  502    0  0.34154925702E+01 -0.11400298211E+03 -0.24204265690E+03  0.31808331185E+03  0.17200000000E+03 0. -1.
         -6    1    1    2    0  501 -0.34154925702E+01  0.11400298211E+03 -0.10582231020E+04  0.10781597651E+04  0.17200000000E+03 0.  1.
</event>
<event>
 4    1  0.3196149E-002  0.2925782E+03  0.7818608E-02  0.1089011E+00
          2   -1    0    0  502    0  0.00000000000E+00  0.00000000000E+00  0.26398491205E+04  0.26398491205E+04  0.00000000000E+00 0. -1.
         -2   -1    0    0    0  501 -0.00000000000E+00 -0.00000000000E+00 -0.62903200959E+02  0.62903200959E+02  0.00000000000E+00 0.  1.
          6    1    1    2  502    0  0.15904951895E+03  0.17527481171E+03  0.22291083530E+04  0.22482273146E+04  0.17200000000E+03 0. -1.
         -6    1    1    2    0  501 -0.15904951895E+03 -0.17527481171E+03  0.34783756661E+03  0.45452500684E+03  0.17200000000E+03 0.  1.
</event>
<event>
 4    1  0.3196149E-002  0.1971565E+03  0.7818608E-02  0.1152160E+00
         -2   -1    0    0    0  501 -0.00000000000E+00  0.00000000000E+00  0.26407776073E+03  0.26407776073E+03  0.00000000000E+00 0.  1.
          2   -1    0    0  502    0  0.00000000000E+00 -0.00000000000E+00 -0.56696933588E+03  0.56696933588E+03  0.00000000000E+00 0. -1.
          6    1    1    2  502    0  0.77035753325E+02  0.57897947508E+02 -0.50898549433E+03  0.54583597632E+03  0.17200000000E+03 0. -1.
         -6    1    1    2    0  501 -0.77035753325E+02 -0.57897947508E+02  0.20609391917E+03  0.28521112029E+03  0.17200000000E+03 0.  1.
</event>
<event>
 4    1  0.3196149E-002  0.1872943E+03  0.7818608E-02  0.1160925E+00
          2   -1    0    0  502    0  0.00000000000E+00  0.00000000000E+00  0.17951635131E+03  0.17951635131E+03  0.00000000000E+00 0. -1.
         -2   -1    0    0    0  501 -0.00000000000E+00 -0.00000000000E+00 -0.27723400716E+03  0.27723400716E+03  0.00000000000E+00 0.  1.
          6    1    1    2  502    0 -0.96727760318E+01 -0.73495568526E+02 -0.17292915569E+03  0.25491891667E+03  0.17200000000E+03 0.  1.
         -6    1    1    2    0  501  0.96727760318E+01  0.73495568526E+02  0.75211499840E+02  0.20183144180E+03  0.17200000000E+03 0. -1.
</event>
<event>
 4    1  0.3196149E-002  0.2920543E+03  0.7818608E-02  0.1089281E+00
          2   -1    0    0  502    0  0.00000000000E+00  0.00000000000E+00  0.25133779422E+04  0.25133779422E+04  0.00000000000E+00 0. -1.
         -2   -1    0    0    0  501 -0.00000000000E+00 -0.00000000000E+00 -0.34346202404E+02  0.34346202404E+02  0.00000000000E+00 0.  1.
          6    1    1    2  502    0 -0.21076397169E+03 -0.10625553044E+03  0.11004166444E+04  0.11385132765E+04  0.17200000000E+03 0.  1.
         -6    1    1    2    0  501  0.21076397169E+03  0.10625553044E+03  0.13786150955E+04  0.14092108682E+04  0.17200000000E+03 0.  1.
</event>
<event>
 4    1  0.3196149E-002  0.2473289E+03  0.7818608E-02  0.1115005E+00
          2   -1    0    0  502    0  0.00000000000E+00  0.00000000000E+00  0.26646349973E+04  0.26646349973E+04  0.00000000000E+00 0. -1.
         -2   -1    0    0    0  501 -0.00000000000E+00 -0.00000000000E+00 -0.23109701471E+02  0.23109701471E+02  0.00000000000E+00 0.  1.
          6    1    1    2  502    0 -0.13957187865E+03 -0.11003297107E+03  0.14300647877E+04  0.14512948911E+04  0.17200000000E+03 0. -1.
         -6    1    1    2    0  501  0.13957187865E+03  0.11003297107E+03  0.12114605082E+04  0.12364498077E+04  0.17200000000E+03 0.  1.
</event>
<event>
 4    1  0.3196149E-002  0.3062326E+03  0.7818608E-02  0.1082166E+00
         -2   -1    0    0    0  501 -0.00000000000E+00  0.00000000000E+00  0.56184978467E+02  0.56184978467E+02  0.00000000000E+00 0.  1.
          2   -1    0    0  502    0  0.00000000000E+00 -0.00000000000E+00 -0.18210195257E+04  0.18210195257E+04  0.00000000000E+00 0. -1.
          6    1    1    2  502    0  0.22733676451E+03  0.11185897866E+03 -0.11535168560E+04  0.11934737419E+04  0.17200000000E+03 0. -1.
         -6    1    1    2    0  501 -0.22733676451E+03 -0.11185897866E+03 -0.61131769117E+03  0.68373076217E+03  0.17200000000E+03 0.  1.
</event>
<event>
 4    1  0.3196149E-002  0.4479605E+03  0.7818608E-02  0.1028332E+00
         -2   -1    0    0    0  501 -0.00000000000E+00  0.00000000000E+00  0.55252974131E+03  0.55252974131E+03  0.00000000000E+00 0.  1.
          2   -1    0    0  502    0  0.00000000000E+00 -0.00000000000E+00 -0.57854061800E+03  0.57854061800E+03  0.00000000000E+00 0. -1.
          6    1    1    2  502    0  0.36699779320E+03 -0.19078060633E+03 -0.35804926185E+03  0.57347004619E+03  0.17200000000E+03 0. -1.
         -6    1    1    2    0  501 -0.36699779320E+03  0.19078060633E+03  0.33203838516E+03  0.55760031311E+03  0.17200000000E+03 0.  1.
</event>
<event>
 4    1  0.3196149E-002  0.2322574E+03  0.7818608E-02  0.1125061E+00
          2   -1    0    0  502    0  0.00000000000E+00  0.00000000000E+00  0.54237488768E+03  0.54237488768E+03  0.00000000000E+00 0. -1.
         -2   -1    0    0    0  501 -0.00000000000E+00 -0.00000000000E+00 -0.11451429829E+03  0.11451429829E+03  0.00000000000E+00 0.  1.
          6    1    1    2  502    0  0.10439189068E+03 -0.11602511068E+03  0.33302490829E+03  0.40601611137E+03  0.17200000000E+03 0.  1.
         -6    1    1    2    0  501 -0.10439189068E+03  0.11602511068E+03  0.94835681103E+02  0.25087307460E+03  0.17200000000E+03 0. -1.
</event>
<event>
 4    1  0.3196149E-002  0.3952347E+03  0.7818608E-02  0.1045442E+00
         -2   -1    0    0    0  501 -0.00000000000E+00  0.00000000000E+00  0.17930289115E+03  0.17930289115E+03  0.00000000000E+00 0.  1.
          2   -1    0    0  502    0  0.00000000000E+00 -0.00000000000E+00 -0.12260667158E+04  0.12260667158E+04  0.00000000000E+00 0. -1.
          6    1    1    2  502    0  0.86347488655E+02  0.34521097418E+03 -0.14534874111E+03  0.42111371628E+03  0.17200000000E+03 0. -1.
         -6    1    1    2    0  501 -0.86347488655E+02 -0.34521097418E+03 -0.90141508358E+03  0.98425589071E+03  0.17200000000E+03 0.  1.
</event>
<event>
 4    1  0.3196149E-002  0.1813729E+03  0.7818608E-02  0.1166481E+00
          2   -1    0    0  502    0  0.00000000000E+00  0.00000000000E+00  0.10827828143E+04  0.10827828143E+04  0.00000000000E+00 0. -1.
         -2   -1    0    0    0  501 -0.00000000000E+00 -0.00000000000E+00 -0.58724311999E+02  0.58724311999E+02  0.00000000000E+00 0.  1.
          6    1    1    2  502    0  0.48175831707E+02 -0.31483540227E+02  0.90854848491E+03  0.92647529568E+03  0.17200000000E+03 0. -1.
         -6    1    1    2    0  501 -0.48175831707E+02  0.31483540227E+02  0.11551001740E+03  0.21503183064E+03  0.17200000000E+03 0.  1.
</event>
<event>
 4    1  0.3196149E-002  0.2167858E+03  0.7818608E-02  0.1136302E+00
         -2   -1    0    0    0  501 -0.00000000000E+00  0.00000000000E+00  0.14031578826E+03  0.14031578826E+03  0.00000000000E+00 0.  1.
          2   -1    0    0  502    0  0.00000000000E+00 -0.00000000000E+00 -0.40494654072E+03  0.40494654072E+03  0.00000000000E+00 0. -1.
          6    1    1    2  502    0 -0.13186527981E+03  0.48604627913E+01 -0.18951532096E+02  0.21761258393E+03  0.17200000000E+03 0.  1.
         -6    1    1    2    0  501  0.13186527981E+03 -0.48604627913E+01 -0.24567922036E+03  0.32764974506E+03  0.17200000000E+03 0.  1.
</event>
<event>
 4    1  0.3196149E-002  0.2748767E+03  0.7818608E-02  0.1098521E+00
         -2   -1    0    0    0  501 -0.00000000000E+00  0.00000000000E+00  0.10960223562E+03  0.10960223562E+03  0.00000000000E+00 0.  1.
          2   -1    0    0  502    0  0.00000000000E+00 -0.00000000000E+00 -0.71626119921E+03  0.71626119921E+03  0.00000000000E+00 0. -1.
          6    1    1    2  502    0  0.16606064940E+03  0.13563585540E+03 -0.22332879358E+03  0.35416517981E+03  0.17200000000E+03 0. -1.
         -6    1    1    2    0  501 -0.16606064940E+03 -0.13563585540E+03 -0.38333017002E+03  0.47169825502E+03  0.17200000000E+03 0.  1.
</event>
<event>
 4    1  0.3196149E-002  0.1938294E+03  0.7818608E-02  0.1155052E+00
         -2   -1    0    0    0  501 -0.00000000000E+00  0.00000000000E+00  0.21929744961E+03  0.21929744961E+03  0.00000000000E+00 0.  1.
          2   -1    0    0  502    0  0.00000000000E+00 -0.00000000000E+00 -0.33608674148E+03  0.33608674148E+03  0.00000000000E+00 0. -1.
          6    1    1    2  502    0  0.25911986573E+02 -0.85524394462E+02  0.13604003058E+03  0.23680528503E+03  0.17200000000E+03 0.  1.
         -6    1    1    2    0  501 -0.25911986573E+02  0.85524394462E+02 -0.25282932245E+03  0.31857890606E+03  0.17200000000E+03 0. -1.
</event>
<event>
 4    1  0.3196149E-002  0.2610851E+03  0.7818608E-02  0.1106493E+00
         -1   -1    0    0    0  501 -0.00000000000E+00  0.00000000000E+00  0.92007550694E+02  0.92007550694E+02  0.00000000000E+00 0.  1.
          1   -1    0    0  502    0  0.00000000000E+00 -0.00000000000E+00 -0.10106825109E+04  0.10106825109E+04  0.00000000000E+00 0. -1.
          6    1    1    2  502    0  0.22395189161E+02  0.19514062282E+03 -0.74420905458E+03  0.78867770610E+03  0.17200000000E+03 0. -1.
         -6    1    1    2    0  501 -0.22395189161E+02 -0.19514062282E+03 -0.17446590561E+03  0.31401235548E+03  0.17200000000E+03 0.  1.
</event>
<event>
 4    1  0.3196149E-002  0.2651488E+03  0.7818608E-02  0.1104089E+00
          4   -1    0    0  502    0  0.00000000000E+00  0.00000000000E+00  0.60593975116E+03  0.60593975116E+03  0.00000000000E+00 0. -1.
         -4   -1    0    0    0  501 -0.00000000000E+00 -0.00000000000E+00 -0.24298313936E+03  0.24298313936E+03  0.00000000000E+00 0.  1.
          6    1    1    2  502    0  0.95170968134E+02  0.17793920762E+03  0.48829660467E+03  0.55564147516E+03  0.17200000000E+03 0. -1.
         -6    1    1    2    0  501 -0.95170968134E+02 -0.17793920762E+03 -0.12533999288E+03  0.29328141536E+03  0.17200000000E+03 0.  1.
</event>
<event>
 4    1  0.3196149E-002  0.2467546E+03  0.7818608E-02  0.1115373E+00
         -1   -1    0    0    0  501 -0.00000000000E+00  0.00000000000E+00  0.22158367463E+03  0.22158367463E+03  0.00000000000E+00 0.  1.
          1   -1    0    0  502    0  0.00000000000E+00 -0.00000000000E+00 -0.35564160858E+03  0.35564160858E+03  0.00000000000E+00 0. -1.
          6    1    1    2  502    0 -0.16821879231E+03 -0.54829677376E+02 -0.20464435609E+03  0.32057318679E+03  0.17200000000E+03 0. -1.
         -6    1    1    2    0  501  0.16821879231E+03  0.54829677376E+02  0.70586422137E+02  0.25665209642E+03  0.17200000000E+03 0.  1.
</event>
<event>
 4    1  0.3196149E-002  0.2852339E+03  0.7818608E-02  0.1092864E+00
         -1   -1    0    0    0  501 -0.00000000000E+00  0.00000000000E+00  0.73903178758E+03  0.73903178758E+03  0.00000000000E+00 0.  1.
          1   -1    0    0  502    0  0.00000000000E+00 -0.00000000000E+00 -0.79775740022E+03  0.79775740022E+03  0.00000000000E+00 0. -1.
          6    1    1    2  502    0  0.18214691167E+03  0.13637036573E+03 -0.74277215637E+03  0.79565623881E+03  0.17200000000E+03 0. -1.
         -6    1    1    2    0  501 -0.18214691167E+03 -0.13637036573E+03  0.68404654373E+03  0.74113294898E+03  0.17200000000E+03 0.  1.
</event>
<event>
 4    1  0.3196149E-002  0.1724455E+03  0.7818608E-02  0.1175321E+00
          2   -1    0    0  502    0  0.00000000000E+00  0.00000000000E+00  0.12330350445E+04  0.12330350445E+04  0.00000000000E+00 0. -1.
         -2   -1    0    0    0  501 -0.00000000000E+00 -0.00000000000E+00 -0.36287763166E+02  0.36287763166E+02  0.00000000000E+00 0.  1.
          6    1    1    2  502    0  0.11539159534E+02  0.45035836193E+01  0.23082388020E+03  0.28812687855E+03  0.17200000000E+03 0.  1.
         -6    1    1    2    0  501 -0.11539159534E+02 -0.45035836193E+01  0.96592340110E+03  0.98119592909E+03  0.17200000000E+03 0. -1.
</event>
<event>
 4    1  0.3196149E-002  0.1859601E+03  0.7818608E-02  0.1162156E+00
          1   -1    0    0  502    0  0.00000000000E+00  0.00000000000E+00  0.14273793946E+04  0.14273793946E+04  0.00000000000E+00 0. -1.
         -1   -1    0    0    0  501 -0.00000000000E+00 -0.00000000000E+00 -0.53205650935E+02  0.53205650935E+02  0.00000000000E+00 0.  1.
          6    1    1    2  502    0 -0.88660649620E+01 -0.70132332150E+02  0.12334273822E+04  0.12473669300E+04  0.17200000000E+03 0. -1.
         -6    1    1    2    0  501  0.88660649620E+01  0.70132332150E+02  0.14074636155E+03  0.23321811552E+03  0.17200000000E+03 0.  1.
</event>
<event>
 4    1  0.3196149E-002  0.5409183E+03  0.7818608E-02  0.1003618E+00
          2   -1    0    0  502    0  0.00000000000E+00  0.00000000000E+00  0.12251610618E+04  0.12251610618E+04  0.00000000000E+00 0. -1.
         -2   -1    0    0    0  501 -0.00000000000E+00 -0.00000000000E+00 -0.25041974736E+03  0.25041974736E+03  0.00000000000E+00 0.  1.
          6    1    1    2  502    0 -0.78669119817E+02 -0.50677384956E+03  0.64616282938E+03  0.84268556834E+03  0.17200000000E+03 0. -1.
         -6    1    1    2    0  501  0.78669119817E+02  0.50677384956E+03  0.32857848507E+03  0.63289524083E+03  0.17200000000E+03 0.  1.
</event>
<event>
 4    1  0.3196149E-002  0.1978062E+03  0.7818608E-02  0.1151603E+00
         -1   -1    0    0    0  501 -0.00000000000E+00  0.00000000000E+00  0.38088636109E+02  0.38088636109E+02  0.00000000000E+00 0.  1.
          1   -1    0    0  502    0  0.00000000000E+00 -0.00000000000E+00 -0.10323980302E+04  0.10323980302E+04  0.00000000000E+00 0. -1.
          6    1    1    2  502    0  0.92917656248E+02  0.30159597012E+02 -0.45942994397E+03  0.50020312429E+03  0.17200000000E+03 0. -1.
         -6    1    1    2    0  501 -0.92917656248E+02 -0.30159597012E+02 -0.53487945014E+03  0.57028354203E+03  0.17200000000E+03 0.  1.
</event>
<event>
 4    1  0.3196149E-002  0.2644559E+03  0.7818608E-02  0.1104495E+00
          2   -1    0    0  502    0  0.00000000000E+00  0.00000000000E+00  0.73462522725E+03  0.73462522725E+03  0.00000000000E+00 0. -1.
         -2   -1    0    0    0  501 -0.00000000000E+00 -0.00000000000E+00 -0.12680506416E+03  0.12680506416E+03  0.00000000000E+00 0.  1.
          6    1    1    2  502    0 -0.20017179532E+03  0.16858026418E+02  0.88882389868E+02  0.27899286716E+03  0.17200000000E+03 0. -1.
         -6    1    1    2    0  501  0.20017179532E+03 -0.16858026418E+02  0.51893777322E+03  0.58243742425E+03  0.17200000000E+03 0.  1.
</event>
<event>
 4    1  0.3196149E-002  0.1804653E+03  0.7818608E-02  0.1167353E+00
         -2   -1    0    0    0  501 -0.00000000000E+00  0.00000000000E+00  0.64135909263E+02  0.64135909263E+02  0.00000000000E+00 0.  1.
          2   -1    0    0  502    0  0.00000000000E+00 -0.00000000000E+00 -0.52673909109E+03  0.52673909109E+03  0.00000000000E+00 0. -1.
          6    1    1    2  502    0  0.51665257595E+02  0.17732319407E+02 -0.28733323094E+03  0.33930534861E+03  0.17200000000E+03 0. -1.
         -6    1    1    2    0  501 -0.51665257595E+02 -0.17732319407E+02 -0.17526995089E+03  0.25156965174E+03  0.17200000000E+03 0.  1.
</event>
<event>
 4    1  0.3196149E-002  0.1728537E+03  0.7818608E-02  0.1174904E+00
         -3   -1    0    0    0  501 -0.00000000000E+00  0.00000000000E+00  0.38251177481E+03  0.38251177481E+03  0.00000000000E+00 0.  1.
          3   -1    0    0  502    0  0.00000000000E+00 -0.00000000000E+00 -0.10679727539E+03  0.10679727539E+03  0.00000000000E+00 0. -1.
          6    1    1    2  502    0  0.12662777366E+02  0.11578531762E+02  0.26465444079E+03  0.31610185282E+03  0.17200000000E+03 0.  1.
         -6    1    1    2    0  501 -0.12662777366E+02 -0.11578531762E+02  0.11060058632E+02  0.17320719738E+03  0.17200000000E+03 0. -1.
</event>
<event>
 4    1  0.3196149E-002  0.6398659E+03  0.7818608E-02  0.9825983E-01
         -1   -1    0    0    0  501 -0.00000000000E+00  0.00000000000E+00  0.84571952619E+03  0.84571952619E+03  0.00000000000E+00 0.  1.
          1   -1    0    0  502    0  0.00000000000E+00 -0.00000000000E+00 -0.11433011930E+04  0.11433011930E+04  0.00000000000E+00 0. -1.
          6    1    1    2  502    0 -0.50019464836E+03 -0.36006899906E+03 -0.90393856040E+03  0.11074896349E+04  0.17200000000E+03 0. -1.
         -6    1    1    2    0  501  0.50019464836E+03  0.36006899906E+03  0.60635689356E+03  0.88153108436E+03  0.17200000000E+03 0.  1.
</event>
<event>
 4    1  0.3196149E-002  0.2103910E+03  0.7818608E-02  0.1141257E+00
          1   -1    0    0  502    0  0.00000000000E+00  0.00000000000E+00  0.81507120776E+03  0.81507120776E+03  0.00000000000E+00 0. -1.
         -1   -1    0    0    0  501 -0.00000000000E+00 -0.00000000000E+00 -0.10978044363E+03  0.10978044363E+03  0.00000000000E+00 0.  1.
          6    1    1    2  502    0 -0.11958934240E+03 -0.19461407375E+02  0.23929427201E+02  0.21174743134E+03  0.17200000000E+03 0.  1.
         -6    1    1    2    0  501  0.11958934240E+03  0.19461407375E+02  0.68136133693E+03  0.71310422005E+03  0.17200000000E+03 0. -1.
</event>
<event>
 4    1  0.3196149E-002  0.2732203E+03  0.7818608E-02  0.1099451E+00
          2   -1    0    0  502    0  0.00000000000E+00  0.00000000000E+00  0.10251240435E+04  0.10251240435E+04  0.00000000000E+00 0. -1.
         -2   -1    0    0    0  501 -0.00000000000E+00 -0.00000000000E+00 -0.75237257333E+02  0.75237257333E+02  0.00000000000E+00 0.  1.
          6    1    1    2  502    0 -0.11732450167E+03  0.17691895764E+03  0.37632322202E+03  0.46504679732E+03  0.17200000000E+03 0. -1.
         -6    1    1    2    0  501  0.11732450167E+03 -0.17691895764E+03  0.57356356416E+03  0.63531450353E+03  0.17200000000E+03 0.  1.
</event>
<event>
 4    1  0.3196149E-002  0.2271492E+03  0.7818608E-02  0.1128663E+00
         -2   -1    0    0    0  501 -0.00000000000E+00  0.00000000000E+00  0.77692025502E+02  0.77692025502E+02  0.00000000000E+00 0.  1.
          2   -1    0    0  502    0  0.00000000000E+00 -0.00000000000E+00 -0.67938273479E+03  0.67938273479E+03  0.00000000000E+00 0. -1.
          6    1    1    2  502    0 -0.21484862656E+02  0.14680309180E+03 -0.24410624574E+03  0.33344355789E+03  0.17200000000E+03 0. -1.
         -6    1    1    2    0  501  0.21484862656E+02 -0.14680309180E+03 -0.35758446354E+03  0.42363120240E+03  0.17200000000E+03 0.  1.
</event>
<event>
 4    1  0.3196149E-002  0.1729271E+03  0.7818608E-02  0.1174829E+00
         -2   -1    0    0    0  501 -0.00000000000E+00  0.00000000000E+00  0.37157056069E+02  0.37157056069E+02  0.00000000000E+00 0.  1.
          2   -1    0    0  502    0  0.00000000000E+00 -0.00000000000E+00 -0.10395231126E+04  0.10395231126E+04  0.00000000000E+00 0. -1.
          6    1    1    2  502    0 -0.17386020938E+02  0.41848240316E+01 -0.75699617234E+03  0.77649661391E+03  0.17200000000E+03 0. -1.
         -6    1    1    2    0  501  0.17386020938E+02 -0.41848240316E+01 -0.24536988415E+03  0.30018355472E+03  0.17200000000E+03 0.  1.
</event>
<event>
 4    1  0.3196149E-002  0.1901413E+03  0.7818608E-02  0.1158334E+00
          2   -1    0    0  502    0  0.00000000000E+00  0.00000000000E+00  0.29823496724E+03  0.29823496724E+03  0.00000000000E+00 0. -1.
         -2   -1    0    0    0  501 -0.00000000000E+00 -0.00000000000E+00 -0.21885029147E+03  0.21885029147E+03  0.00000000000E+00 0.  1.
          6    1    1    2  502    0  0.72938640255E+02  0.35350729683E+02 -0.13298620900E+03  0.23203243548E+03  0.17200000000E+03 0.  1.
         -6    1    1    2    0  501 -0.72938640255E+02 -0.35350729683E+02  0.21237088477E+03  0.28505282322E+03  0.17200000000E+03 0. -1.
</event>
<event>
 4    1  0.3196149E-002  0.1751041E+03  0.7818608E-02  0.1172627E+00
         -2   -1    0    0    0  501 -0.00000000000E+00  0.00000000000E+00  0.39857324717E+02  0.39857324717E+02  0.00000000000E+00 0.  1.
          2   -1    0    0  502    0  0.00000000000E+00 -0.00000000000E+00 -0.11683833582E+04  0.11683833582E+04  0.00000000000E+00 0. -1.
          6    1    1    2  502    0 -0.31309618842E+02 -0.98574480436E+01 -0.91734309406E+03  0.93390567711E+03  0.17200000000E+03 0. -1.
         -6    1    1    2    0  501  0.31309618842E+02  0.98574480436E+01 -0.21118293946E+03  0.27433500585E+03  0.17200000000E+03 0.  1.
</event>
<event>
 4    1  0.3196149E-002  0.3391651E+03  0.7818608E-02  0.1067152E+00
          1   -1    0    0  502    0  0.00000000000E+00  0.00000000000E+00  0.48142527908E+03  0.48142527908E+03  0.00000000000E+00 0. -1.
         -1   -1    0    0    0  501 -0.00000000000E+00 -0.00000000000E+00 -0.38984501643E+03  0.38984501643E+03  0.00000000000E+00 0.  1.
          6    1    1    2  502    0  0.23543316582E+03  0.17326337356E+03 -0.22524470991E+03  0.40714635148E+03  0.17200000000E+03 0.  1.
         -6    1    1    2    0  501 -0.23543316582E+03 -0.17326337356E+03  0.31682497257E+03  0.46412394403E+03  0.17200000000E+03 0.  1.
</event>
<event>
 4    1  0.3196149E-002  0.1600422E+04  0.7818608E-02  0.8820289E-01
          2   -1    0    0  502    0  0.00000000000E+00  0.00000000000E+00  0.27560567532E+04  0.27560567532E+04  0.00000000000E+00 0. -1.
         -2   -1    0    0    0  501 -0.00000000000E+00 -0.00000000000E+00 -0.93017515010E+03  0.93017515010E+03  0.00000000000E+00 0.  1.
          6    1    1    2  502    0  0.64269556494E+03 -0.14555784437E+04  0.96772936869E+03  0.18702540806E+04  0.17200000000E+03 0. -1.
         -6    1    1    2    0  501 -0.64269556494E+03  0.14555784437E+04  0.85815223440E+03  0.18159778227E+04  0.17200000000E+03 0.  1.
</event>
<event>
 4    1  0.3196149E-002  0.4104247E+03  0.7818608E-02  0.1040229E+00
         -2   -1    0    0    0  501 -0.00000000000E+00  0.00000000000E+00  0.11751709103E+03  0.11751709103E+03  0.00000000000E+00 0.  1.
          2   -1    0    0  502    0  0.00000000000E+00 -0.00000000000E+00 -0.14579617080E+04  0.14579617080E+04  0.00000000000E+00 0. -1.
          6    1    1    2  502    0  0.26493651317E+03  0.26205551876E+03 -0.56796838878E+03  0.70073999570E+03  0.17200000000E+03 0. -1.
         -6    1    1    2    0  501 -0.26493651317E+03 -0.26205551876E+03 -0.77247622818E+03  0.87473880332E+03  0.17200000000E+03 0.  1.
</event>
<event>
 4    1  0.3196149E-002  0.2355682E+03  0.7818608E-02  0.1122781E+00
          2   -1    0    0  502    0  0.00000000000E+00  0.00000000000E+00  0.29494661954E+03  0.29494661954E+03  0.00000000000E+00 0. -1.
         -2   -1    0    0    0  501 -0.00000000000E+00 -0.00000000000E+00 -0.24999243091E+03  0.24999243091E+03  0.00000000000E+00 0.  1.
          6    1    1    2  502    0  0.16028637028E+03  0.14719636595E+02  0.15800209764E+03  0.28364952152E+03  0.17200000000E+03 0. -1.
         -6    1    1    2    0  501 -0.16028637028E+03 -0.14719636595E+02 -0.11304790901E+03  0.26128952893E+03  0.17200000000E+03 0.  1.
</event>
<event>
 4    1  0.3196149E-002  0.1815348E+03  0.7818608E-02  0.1166326E+00
         -2   -1    0    0    0  501 -0.00000000000E+00  0.00000000000E+00  0.34827977603E+02  0.34827977603E+02  0.00000000000E+00 0.  1.
          2   -1    0    0  502    0  0.00000000000E+00 -0.00000000000E+00 -0.18407494835E+04  0.18407494835E+04  0.00000000000E+00 0. -1.
          6    1    1    2  502    0  0.47656734556E+02  0.33161926156E+02 -0.15567011958E+04  0.15672502961E+04  0.17200000000E+03 0. -1.
         -6    1    1    2    0  501 -0.47656734556E+02 -0.33161926156E+02 -0.24922031006E+03  0.30832716494E+03  0.17200000000E+03 0.  1.
</event>
<event>
 4    1  0.3196149E-002  0.5268194E+03  0.7818608E-02  0.1007006E+00
         -2   -1    0    0    0  501 -0.00000000000E+00  0.00000000000E+00  0.14998708849E+03  0.14998708849E+03  0.00000000000E+00 0.  1.
          2   -1    0    0  502    0  0.00000000000E+00 -0.00000000000E+00 -0.20462220705E+04  0.20462220705E+04  0.00000000000E+00 0. -1.
          6    1    1    2  502    0  0.43160649728E+03  0.24833539346E+03 -0.12878049016E+04  0.13913950197E+04  0.17200000000E+03 0. -1.
         -6    1    1    2    0  501 -0.43160649728E+03 -0.24833539346E+03 -0.60843008042E+03  0.80481413935E+03  0.17200000000E+03 0.  1.
</event>
<event>
 4    1  0.3196149E-002  0.1868964E+03  0.7818608E-02  0.1161291E+00
         -2   -1    0    0    0  501 -0.00000000000E+00  0.00000000000E+00  0.58186602669E+02  0.58186602669E+02  0.00000000000E+00 0.  1.
          2   -1    0    0  502    0  0.00000000000E+00 -0.00000000000E+00 -0.82522121688E+03  0.82522121688E+03  0.00000000000E+00 0. -1.
          6    1    1    2  502    0  0.52866289434E+02 -0.50511564059E+02 -0.61411090255E+03  0.64192091669E+03  0.17200000000E+03 0. -1.
         -6    1    1    2    0  501 -0.52866289434E+02  0.50511564059E+02 -0.15292371167E+03  0.24148690286E+03  0.17200000000E+03 0.  1.
</event>
<event>
 4    1  0.3196149E-002  0.1762777E+03  0.7818608E-02  0.1171455E+00
          2   -1    0    0  502    0  0.00000000000E+00  0.00000000000E+00  0.10054647347E+03  0.10054647347E+03  0.00000000000E+00 0. -1.
         -2   -1    0    0    0  501 -0.00000000000E+00 -0.00000000000E+00 -0.31452957613E+03  0.31452957613E+03  0.00000000000E+00 0.  1.
          6    1    1    2  502    0  0.23962923817E+02  0.30258691732E+02 -0.13438652914E+03  0.22166088820E+03  0.17200000000E+03 0. -1.
         -6    1    1    2    0  501 -0.23962923817E+02 -0.30258691732E+02 -0.79596573526E+02  0.19341516140E+03  0.17200000000E+03 0. -1.
</event>
<event>
 4    1  0.3196149E-002  0.3906852E+03  0.7818608E-02  0.1047054E+00
          2   -1    0    0  502    0  0.00000000000E+00  0.00000000000E+00  0.41975673466E+04  0.41975673466E+04  0.00000000000E+00 0. -1.
         -2   -1    0    0    0  501 -0.00000000000E+00 -0.00000000000E+00 -0.37218703053E+02  0.37218703053E+02  0.00000000000E+00 0.  1.
          6    1    1    2  502    0  0.18536712084E+03  0.29780862948E+03  0.24012847878E+04  0.24328591372E+04  0.17200000000E+03 0.  1.
         -6    1    1    2    0  501 -0.18536712084E+03 -0.29780862948E+03  0.17590638558E+04  0.18019269125E+04  0.17200000000E+03 0.  1.
</event>
<event>
 4    1  0.3196149E-002  0.3055002E+03  0.7818608E-02  0.1082523E+00
         -2   -1    0    0    0  501 -0.00000000000E+00  0.00000000000E+00  0.85999047317E+02  0.85999047317E+02  0.00000000000E+00 0.  1.
          2   -1    0    0  502    0  0.00000000000E+00 -0.00000000000E+00 -0.12298185127E+04  0.12298185127E+04  0.00000000000E+00 0. -1.
          6    1    1    2  502    0 -0.23946028831E+03 -0.80032127314E+02 -0.34633851436E+03  0.46182327530E+03  0.17200000000E+03 0.  1.
         -6    1    1    2    0  501  0.23946028831E+03  0.80032127314E+02 -0.79748095103E+03  0.85399428472E+03  0.17200000000E+03 0. -1.
</event>
<event>
 4    1  0.3196149E-002  0.2043163E+03  0.7818608E-02  0.1146148E+00
         -1   -1    0    0    0  501 -0.00000000000E+00  0.00000000000E+00  0.49586192354E+03  0.49586192354E+03  0.00000000000E+00 0.  1.
          1   -1    0    0  502    0  0.00000000000E+00 -0.00000000000E+00 -0.84238813619E+02  0.84238813619E+02  0.00000000000E+00 0. -1.
          6    1    1    2  502    0  0.92794986313E+02 -0.59583760593E+02  0.19861894684E+03  0.28494669686E+03  0.17200000000E+03 0. -1.
         -6    1    1    2    0  501 -0.92794986313E+02  0.59583760593E+02  0.21300416309E+03  0.29515404030E+03  0.17200000000E+03 0.  1.
</event>
<event>
 4    1  0.3196149E-002  0.1745629E+03  0.7818608E-02  0.1173171E+00
          2   -1    0    0  502    0  0.00000000000E+00  0.00000000000E+00  0.38481990839E+03  0.38481990839E+03  0.00000000000E+00 0. -1.
         -2   -1    0    0    0  501 -0.00000000000E+00 -0.00000000000E+00 -0.99265487851E+02  0.99265487851E+02  0.00000000000E+00 0.  1.
          6    1    1    2  502    0 -0.28831275927E+02 -0.75464451114E+01  0.33915889382E+02  0.17782710383E+03  0.17200000000E+03 0.  1.
         -6    1    1    2    0  501  0.28831275927E+02  0.75464451114E+01  0.25163853116E+03  0.30625829241E+03  0.17200000000E+03 0.  1.
</event>
<event>
 4    1  0.3196149E-002  0.1741125E+03  0.7818608E-02  0.1173626E+00
          1   -1    0    0  502    0  0.00000000000E+00  0.00000000000E+00  0.34804265372E+02  0.34804265372E+02  0.00000000000E+00 0. -1.
         -1   -1    0    0    0  501 -0.00000000000E+00 -0.00000000000E+00 -0.88547531289E+03  0.88547531289E+03  0.00000000000E+00 0.  1.
          6    1    1    2  502    0  0.26177452073E+02  0.67741126129E+01 -0.36654020240E+03  0.40579165538E+03  0.17200000000E+03 0. -1.
         -6    1    1    2    0  501 -0.26177452073E+02 -0.67741126129E+01 -0.48413084512E+03  0.51448792289E+03  0.17200000000E+03 0.  1.
</event>
<event>
 4    1  0.3196149E-002  0.2128272E+03  0.7818608E-02  0.1139346E+00
          2   -1    0    0  502    0  0.00000000000E+00  0.00000000000E+00  0.53455929922E+03  0.53455929922E+03  0.00000000000E+00 0. -1.
         -2   -1    0    0    0  501 -0.00000000000E+00 -0.00000000000E+00 -0.13242882566E+03  0.13242882566E+03  0.00000000000E+00 0.  1.
          6    1    1    2  502    0  0.10383314573E+03 -0.70214688758E+02  0.40120427992E+03  0.45415889168E+03  0.17200000000E+03 0. -1.
         -6    1    1    2    0  501 -0.10383314573E+03  0.70214688758E+02  0.92619363991E+00  0.21282923320E+03  0.17200000000E+03 0.  1.
</event>
<event>
 4    1  0.3196149E-002  0.2174003E+03  0.7818608E-02  0.1135836E+00
          2   -1    0    0  502    0  0.00000000000E+00  0.00000000000E+00  0.35497335670E+03  0.35497335670E+03  0.00000000000E+00 0. -1.
         -2   -1    0    0    0  501 -0.00000000000E+00 -0.00000000000E+00 -0.15717015406E+03  0.15717015406E+03  0.00000000000E+00 0.  1.
          6    1    1    2  502    0 -0.12470486422E+03 -0.46125953243E+02  0.19901916225E+03  0.29473977279E+03  0.17200000000E+03 0. -1.
         -6    1    1    2    0  501  0.12470486422E+03  0.46125953243E+02 -0.12159596065E+01  0.21740373796E+03  0.17200000000E+03 0.  1.
</event>
<event>
 4    1  0.3196149E-002  0.2765500E+03  0.7818608E-02  0.1097588E+00
         -2   -1    0    0    0  501 -0.00000000000E+00  0.00000000000E+00  0.16458107871E+03  0.16458107871E+03  0.00000000000E+00 0.  1.
          2   -1    0    0  502    0  0.00000000000E+00 -0.00000000000E+00 -0.68760609544E+03  0.68760609544E+03  0.00000000000E+00 0. -1.
          6    1    1    2  502    0 -0.14827448065E+03  0.15783079346E+03 -0.50411860609E+03  0.57499169558E+03  0.17200000000E+03 0. -1.
         -6    1    1    2    0  501  0.14827448065E+03 -0.15783079346E+03 -0.18906410636E+02  0.27719547857E+03  0.17200000000E+03 0.  1.
</event>
<event>
 4    1  0.3196149E-002  0.2597492E+03  0.7818608E-02  0.1107294E+00
          1   -1    0    0  502    0  0.00000000000E+00  0.00000000000E+00  0.19320391874E+04  0.19320391874E+04  0.00000000000E+00 0. -1.
         -1   -1    0    0    0  501 -0.00000000000E+00 -0.00000000000E+00 -0.35636128888E+02  0.35636128888E+02  0.00000000000E+00 0.  1.
          6    1    1    2  502    0  0.18832082778E+03 -0.49202985131E+02  0.10875250785E+04  0.11181146920E+04  0.17200000000E+03 0. -1.
         -6    1    1    2    0  501 -0.18832082778E+03  0.49202985131E+02  0.80887797995E+03  0.84956062431E+03  0.17200000000E+03 0.  1.
</event>
<event>
 4    1  0.3196149E-002  0.2683759E+03  0.7818608E-02  0.1102213E+00
          2   -1    0    0  502    0  0.00000000000E+00  0.00000000000E+00  0.26726332822E+04  0.26726332822E+04  0.00000000000E+00 0. -1.
         -2   -1    0    0    0  501 -0.00000000000E+00 -0.00000000000E+00 -0.29418317666E+02  0.29418317666E+02  0.00000000000E+00 0.  1.
          6    1    1    2  502    0  0.19392334925E+03 -0.69536793387E+02  0.17130028451E+04  0.17338986067E+04  0.17200000000E+03 0.  1.
         -6    1    1    2    0  501 -0.19392334925E+03  0.69536793387E+02  0.93021211940E+03  0.96815299313E+03  0.17200000000E+03 0.  1.
</event>
<event>
 4    1  0.3196149E-002  0.1957759E+03  0.7818608E-02  0.1153353E+00
          2   -1    0    0  502    0  0.00000000000E+00  0.00000000000E+00  0.27504467340E+03  0.27504467340E+03  0.00000000000E+00 0. -1.
         -2   -1    0    0    0  501 -0.00000000000E+00 -0.00000000000E+00 -0.13973529179E+03  0.13973529179E+03  0.00000000000E+00 0.  1.
          6    1    1    2  502    0 -0.90643111757E+02 -0.22978688020E+02  0.78507749811E+02  0.21093046388E+03  0.17200000000E+03 0. -1.
         -6    1    1    2    0  501  0.90643111757E+02  0.22978688020E+02  0.56801631795E+02  0.20384950132E+03  0.17200000000E+03 0.  1.
</event>
<event>
 4    1  0.3196149E-002  0.2218641E+03  0.7818608E-02  0.1132501E+00
         -3   -1    0    0    0  501 -0.00000000000E+00  0.00000000000E+00  0.12185592327E+04  0.12185592327E+04  0.00000000000E+00 0.  1.
          3   -1    0    0  502    0  0.00000000000E+00 -0.00000000000E+00 -0.40797997991E+02  0.40797997991E+02  0.00000000000E+00 0. -1.
          6    1    1    2  502    0  0.39253255349E+02  0.13453196472E+03  0.52629631977E+03  0.57114926577E+03  0.17200000000E+03 0.  1.
         -6    1    1    2    0  501 -0.39253255349E+02 -0.13453196472E+03  0.65146491498E+03  0.68820796496E+03  0.17200000000E+03 0.  1.
</event>
<event>
 4    1  0.3196149E-002  0.2139600E+03  0.7818608E-02  0.1138468E+00
         -2   -1    0    0    0  501 -0.00000000000E+00  0.00000000000E+00  0.48952013282E+03  0.48952013282E+03  0.00000000000E+00 0.  1.
          2   -1    0    0  502    0  0.00000000000E+00 -0.00000000000E+00 -0.13305425234E+03  0.13305425234E+03  0.00000000000E+00 0. -1.
          6    1    1    2  502    0  0.11782426238E+03 -0.48086739405E+02  0.85472529288E+01  0.21413067703E+03  0.17200000000E+03 0. -1.
         -6    1    1    2    0  501 -0.11782426238E+03  0.48086739405E+02  0.34791862755E+03  0.40844370813E+03  0.17200000000E+03 0.  1.
</event>
<event>
 4    1  0.3196149E-002  0.1822639E+03  0.7818608E-02  0.1165630E+00
         -2   -1    0    0    0  501 -0.00000000000E+00  0.00000000000E+00  0.23387935307E+03  0.23387935307E+03  0.00000000000E+00 0.  1.
          2   -1    0    0  502    0  0.00000000000E+00 -0.00000000000E+00 -0.15364678007E+03  0.15364678007E+03  0.00000000000E+00 0. -1.
          6    1    1    2  502    0  0.59813699985E+02 -0.76464559710E+01 -0.13140045297E+02  0.18273699074E+03  0.17200000000E+03 0. -1.
         -6    1    1    2    0  501 -0.59813699985E+02  0.76464559710E+01  0.93372618294E+02  0.20478914239E+03  0.17200000000E+03 0.  1.
</event>
<event>
 4    1  0.3196149E-002  0.1847552E+03  0.7818608E-02  0.1163279E+00
         -2   -1    0    0    0  501 -0.00000000000E+00  0.00000000000E+00  0.99984230675E+02  0.99984230675E+02  0.00000000000E+00 0.  1.
          2   -1    0    0  502    0  0.00000000000E+00 -0.00000000000E+00 -0.16735936791E+04  0.16735936791E+04  0.00000000000E+00 0. -1.
          6    1    1    2  502    0 -0.60321975576E+02  0.30194878100E+02 -0.15779917966E+04  0.15887707769E+04  0.17200000000E+03 0. -1.
         -6    1    1    2    0  501  0.60321975576E+02 -0.30194878100E+02  0.43823481345E+01  0.18480713291E+03  0.17200000000E+03 0.  1.
</event>
<event>
 4    1  0.3196149E-002  0.2304024E+03  0.7818608E-02  0.1126357E+00
         -1   -1    0    0    0  501 -0.00000000000E+00  0.00000000000E+00  0.64924669235E+02  0.64924669235E+02  0.00000000000E+00 0.  1.
          1   -1    0    0  502    0  0.00000000000E+00 -0.00000000000E+00 -0.21365902257E+04  0.21365902257E+04  0.00000000000E+00 0. -1.
          6    1    1    2  502    0  0.10971517692E+03 -0.10706937499E+03 -0.19006902589E+04  0.19146040665E+04  0.17200000000E+03 0. -1.
         -6    1    1    2    0  501 -0.10971517692E+03  0.10706937499E+03 -0.17097529756E+03  0.28691082845E+03  0.17200000000E+03 0.  1.
</event>
<event>
 4    1  0.3196149E-002  0.4934811E+03  0.7818608E-02  0.1015495E+00
         -1   -1    0    0    0  501 -0.00000000000E+00  0.00000000000E+00  0.99945853661E+03  0.99945853661E+03  0.00000000000E+00 0.  1.
          1   -1    0    0  502    0  0.00000000000E+00 -0.00000000000E+00 -0.24383384113E+03  0.24383384113E+03  0.00000000000E+00 0. -1.
          6    1    1    2  502    0 -0.27363180889E+03 -0.37291456788E+03  0.36100365515E+03  0.61143052002E+03  0.17200000000E+03 0. -1.
         -6    1    1    2    0  501  0.27363180889E+03  0.37291456788E+03  0.39462104032E+03  0.63186185772E+03  0.17200000000E+03 0.  1.
</event>
<event>
 4    1  0.3196149E-002  0.1986911E+03  0.7818608E-02  0.1150848E+00
          1   -1    0    0  502    0  0.00000000000E+00  0.00000000000E+00  0.45513008314E+03  0.45513008314E+03  0.00000000000E+00 0. -1.
         -1   -1    0    0    0  501 -0.00000000000E+00 -0.00000000000E+00 -0.90588535284E+02  0.90588535284E+02  0.00000000000E+00 0.  1.
          6    1    1    2  502    0 -0.97612451650E+02 -0.19129725379E+02  0.23850889956E+03  0.31042653282E+03  0.17200000000E+03 0. -1.
         -6    1    1    2    0  501  0.97612451650E+02  0.19129725379E+02  0.12603264829E+03  0.23529208560E+03  0.17200000000E+03 0.  1.
</event>
<event>
 4    1  0.3196149E-002  0.1336195E+04  0.7818608E-02  0.9001344E-01
         -2   -1    0    0    0  501 -0.00000000000E+00  0.00000000000E+00  0.86497841522E+03  0.86497841522E+03  0.00000000000E+00 0.  1.
          2   -1    0    0  502    0  0.00000000000E+00 -0.00000000000E+00 -0.23450455459E+04  0.23450455459E+04  0.00000000000E+00 0. -1.
          6    1    1    2  502    0 -0.11169790639E+04  0.71287544564E+03 -0.12955535644E+04  0.18611492870E+04  0.17200000000E+03 0. -1.
         -6    1    1    2    0  501  0.11169790639E+04 -0.71287544564E+03 -0.18451356628E+03  0.13488746741E+04  0.17200000000E+03 0.  1.
</event>
<event>
 4    1  0.3196149E-002  0.1734739E+03  0.7818608E-02  0.1174273E+00
          2   -1    0    0  502    0  0.00000000000E+00  0.00000000000E+00  0.26325959838E+04  0.26325959838E+04  0.00000000000E+00 0. -1.
         -2   -1    0    0    0  501 -0.00000000000E+00 -0.00000000000E+00 -0.21540090332E+02  0.21540090332E+02  0.00000000000E+00 0.  1.
          6    1    1    2  502    0  0.21863879906E+02  0.55832504580E+01  0.22146569024E+04  0.22214406131E+04  0.17200000000E+03 0. -1.
         -6    1    1    2    0  501 -0.21863879906E+02 -0.55832504580E+01  0.39639899110E+03  0.43269546112E+03  0.17200000000E+03 0.  1.
</event>
<event>
 4    1  0.3196149E-002  0.2035568E+03  0.7818608E-02  0.1146772E+00
          1   -1    0    0  502    0  0.00000000000E+00  0.00000000000E+00  0.39684353737E+03  0.39684353737E+03  0.00000000000E+00 0. -1.
         -1   -1    0    0    0  501 -0.00000000000E+00 -0.00000000000E+00 -0.11288710005E+03  0.11288710005E+03  0.00000000000E+00 0.  1.
          6    1    1    2  502    0  0.73468432257E+02 -0.80335329949E+02  0.21180972692E+03  0.29376646540E+03  0.17200000000E+03 0. -1.
         -6    1    1    2    0  501 -0.73468432257E+02  0.80335329949E+02  0.72146710400E+02  0.21596417202E+03  0.17200000000E+03 0.  1.
</event>
<event>
 4    1  0.3196149E-002  0.4426204E+03  0.7818608E-02  0.1029946E+00
         -1   -1    0    0    0  501 -0.00000000000E+00  0.00000000000E+00  0.10953796364E+04  0.10953796364E+04  0.00000000000E+00 0.  1.
          1   -1    0    0  502    0  0.00000000000E+00 -0.00000000000E+00 -0.31657766640E+03  0.31657766640E+03  0.00000000000E+00 0. -1.
          6    1    1    2  502    0 -0.17595779645E+03  0.36792342649E+03 -0.76245210088E+02  0.44913931686E+03  0.17200000000E+03 0. -1.
         -6    1    1    2    0  501  0.17595779645E+03 -0.36792342649E+03  0.85504718011E+03  0.96281798597E+03  0.17200000000E+03 0.  1.
</event>
<event>
 4    1  0.3196149E-002  0.2272915E+03  0.7818608E-02  0.1128561E+00
          2   -1    0    0  502    0  0.00000000000E+00  0.00000000000E+00  0.12034103293E+04  0.12034103293E+04  0.00000000000E+00 0. -1.
         -2   -1    0    0    0  501 -0.00000000000E+00 -0.00000000000E+00 -0.16716138543E+03  0.16716138543E+03  0.00000000000E+00 0.  1.
          6    1    1    2  502    0 -0.14640076113E+03  0.25382013881E+02  0.11088977867E+04  0.11319521769E+04  0.17200000000E+03 0. -1.
         -6    1    1    2    0  501  0.14640076113E+03 -0.25382013881E+02 -0.72648842780E+02  0.23861953786E+03  0.17200000000E+03 0.  1.
</event>
<event>
 4    1  0.3196149E-002  0.1826971E+03  0.7818608E-02  0.1165218E+00
          2   -1    0    0  502    0  0.00000000000E+00  0.00000000000E+00  0.97721407711E+03  0.97721407711E+03  0.00000000000E+00 0. -1.
         -2   -1    0    0    0  501 -0.00000000000E+00 -0.00000000000E+00 -0.34165455713E+02  0.34165455713E+02  0.00000000000E+00 0.  1.
          6    1    1    2  502    0  0.47194461557E+02  0.39584341956E+02  0.46334857618E+03  0.49806640157E+03  0.17200000000E+03 0. -1.
         -6    1    1    2    0  501 -0.47194461557E+02 -0.39584341956E+02  0.47970004522E+03  0.51331313125E+03  0.17200000000E+03 0.  1.
</event>
<event>
 4    1  0.3196149E-002  0.6525997E+03  0.7818608E-02  0.9801913E-01
          2   -1    0    0  502    0  0.00000000000E+00  0.00000000000E+00  0.21139342775E+04  0.21139342775E+04  0.00000000000E+00 0. -1.
         -2   -1    0    0    0  501 -0.00000000000E+00 -0.00000000000E+00 -0.34422973830E+03  0.34422973830E+03  0.00000000000E+00 0.  1.
          6    1    1    2  502    0  0.41221749627E+02 -0.62817447384E+03  0.16763783882E+04  0.17989249297E+04  0.17200000000E+03 0. -1.
         -6    1    1    2    0  501 -0.41221749627E+02  0.62817447384E+03  0.93326151016E+02  0.65923908613E+03  0.17200000000E+03 0.  1.
</event>
<event>
 4    1  0.3196149E-002  0.2305350E+03  0.7818608E-02  0.1126264E+00
         -2   -1    0    0    0  501 -0.00000000000E+00  0.00000000000E+00  0.72705807126E+02  0.72705807126E+02  0.00000000000E+00 0.  1.
          2   -1    0    0  502    0  0.00000000000E+00 -0.00000000000E+00 -0.80685327678E+03  0.80685327678E+03  0.00000000000E+00 0. -1.
          6    1    1    2  502    0 -0.12956700529E+03  0.82308955890E+02 -0.23221260402E+03  0.32721409894E+03  0.17200000000E+03 0.  1.
         -6    1    1    2    0  501  0.12956700529E+03 -0.82308955890E+02 -0.50193486563E+03  0.55234498496E+03  0.17200000000E+03 0.  1.
</event>
<event>
 4    1  0.3196149E-002  0.1919959E+03  0.7818608E-02  0.1156673E+00
         -2   -1    0    0    0  501 -0.00000000000E+00  0.00000000000E+00  0.28607853619E+02  0.28607853619E+02  0.00000000000E+00 0.  1.
          2   -1    0    0  502    0  0.00000000000E+00 -0.00000000000E+00 -0.13017458776E+04  0.13017458776E+04  0.00000000000E+00 0. -1.
          6    1    1    2  502    0  0.43892385085E+02  0.73156584648E+02 -0.70356072447E+03  0.72928740587E+03  0.17200000000E+03 0. -1.
         -6    1    1    2    0  501 -0.43892385085E+02 -0.73156584648E+02 -0.56957729947E+03  0.60106632531E+03  0.17200000000E+03 0.  1.
</event>
<event>
 4    1  0.3196149E-002  0.2978441E+03  0.7818608E-02  0.1086323E+00
         -4   -1    0    0    0  501 -0.00000000000E+00  0.00000000000E+00  0.29891706976E+03  0.29891706976E+03  0.00000000000E+00 0.  1.
          4   -1    0    0  502    0  0.00000000000E+00 -0.00000000000E+00 -0.34019762640E+03  0.34019762640E+03  0.00000000000E+00 0. -1.
          6    1    1    2  502    0 -0.24249096777E+03 -0.18035167253E+02 -0.13480733967E+03  0.32693142330E+03  0.17200000000E+03 0. -1.
         -6    1    1    2    0  501  0.24249096777E+03  0.18035167253E+02  0.93526783026E+02  0.31218327286E+03  0.17200000000E+03 0.  1.
</event>
<event>
 4    1  0.3196149E-002  0.2157206E+03  0.7818608E-02  0.1137114E+00
          2   -1    0    0  502    0  0.00000000000E+00  0.00000000000E+00  0.26637638034E+03  0.26637638034E+03  0.00000000000E+00 0. -1.
         -2   -1    0    0    0  501 -0.00000000000E+00 -0.00000000000E+00 -0.21785388227E+03  0.21785388227E+03  0.00000000000E+00 0.  1.
          6    1    1    2  502    0  0.10615820165E+03  0.75377678610E+02  0.13202196398E+03  0.25291333928E+03  0.17200000000E+03 0. -1.
         -6    1    1    2    0  501 -0.10615820165E+03 -0.75377678610E+02 -0.83499465908E+02  0.23131692333E+03  0.17200000000E+03 0.  1.
</event>
<event>
 4    1  0.3196149E-002  0.1875459E+03  0.7818608E-02  0.1160694E+00
         -2   -1    0    0    0  501 -0.00000000000E+00  0.00000000000E+00  0.14829906490E+03  0.14829906490E+03  0.00000000000E+00 0.  1.
          2   -1    0    0  502    0  0.00000000000E+00 -0.00000000000E+00 -0.26748061150E+03  0.26748061150E+03  0.00000000000E+00 0. -1.
          6    1    1    2  502    0 -0.72801051213E+01  0.74407514907E+02  0.10380108468E+02  0.18783297063E+03  0.17200000000E+03 0.  1.
         -6    1    1    2    0  501  0.72801051213E+01 -0.74407514907E+02 -0.12956165507E+03  0.22794670577E+03  0.17200000000E+03 0. -1.
</event>
<event>
 4    1  0.3196149E-002  0.2627255E+03  0.7818608E-02  0.1105517E+00
         -1   -1    0    0    0  501 -0.00000000000E+00  0.00000000000E+00  0.11968095283E+03  0.11968095283E+03  0.00000000000E+00 0.  1.
          1   -1    0    0  502    0  0.00000000000E+00 -0.00000000000E+00 -0.68854961709E+03  0.68854961709E+03  0.00000000000E+00 0. -1.
          6    1    1    2  502    0  0.18654750625E+03 -0.68122774238E+02 -0.44728104394E+03  0.51873405202E+03  0.17200000000E+03 0. -1.
         -6    1    1    2    0  501 -0.18654750625E+03  0.68122774238E+02 -0.12158762032E+03  0.28949651790E+03  0.17200000000E+03 0.  1.
</event>
<event>
 4    1  0.3196149E-002  0.2384708E+03  0.7818608E-02  0.1120816E+00
         -2   -1    0    0    0  501 -0.00000000000E+00  0.00000000000E+00  0.91260009507E+02  0.91260009507E+02  0.00000000000E+00 0.  1.
          2   -1    0    0  502    0  0.00000000000E+00 -0.00000000000E+00 -0.83202390273E+03  0.83202390273E+03  0.00000000000E+00 0. -1.
          6    1    1    2  502    0 -0.10504737127E+02  0.16484535593E+03 -0.13907788058E+03  0.27606339442E+03  0.17200000000E+03 0.  1.
         -6    1    1    2    0  501  0.10504737127E+02 -0.16484535593E+03 -0.60168601264E+03  0.64722051782E+03  0.17200000000E+03 0.  1.
</event>
<event>
 4    1  0.3196149E-002  0.2035792E+03  0.7818608E-02  0.1146754E+00
         -1   -1    0    0    0  501 -0.00000000000E+00  0.00000000000E+00  0.11274942346E+03  0.11274942346E+03  0.00000000000E+00 0.  1.
          1   -1    0    0  502    0  0.00000000000E+00 -0.00000000000E+00 -0.47461404667E+03  0.47461404667E+03  0.00000000000E+00 0. -1.
          6    1    1    2  502    0 -0.10705231008E+03 -0.20007645228E+02 -0.32039767370E+03  0.37960396767E+03  0.17200000000E+03 0. -1.
         -6    1    1    2    0  501  0.10705231008E+03  0.20007645228E+02 -0.41466949509E+02  0.20775950246E+03  0.17200000000E+03 0.  1.
</event>
<event>
 4    1  0.3196149E-002  0.2307121E+03  0.7818608E-02  0.1126140E+00
         -2   -1    0    0    0  501 -0.00000000000E+00  0.00000000000E+00  0.48809616931E+02  0.48809616931E+02  0.00000000000E+00 0.  1.
          2   -1    0    0  502    0  0.00000000000E+00 -0.00000000000E+00 -0.11099264892E+04  0.11099264892E+04  0.00000000000E+00 0. -1.
          6    1    1    2  502    0  0.25790974671E+02  0.15158788796E+03 -0.45395727216E+03  0.50922025402E+03  0.17200000000E+03 0. -1.
         -6    1    1    2    0  501 -0.25790974671E+02 -0.15158788796E+03 -0.60715960013E+03  0.64951585214E+03  0.17200000000E+03 0.  1.
</event>
<event>
 4    1  0.3196149E-002  0.2318652E+03  0.7818608E-02  0.1125334E+00
         -1   -1    0    0    0  501 -0.00000000000E+00  0.00000000000E+00  0.13251259712E+03  0.13251259712E+03  0.00000000000E+00 0.  1.
          1   -1    0    0  502    0  0.00000000000E+00 -0.00000000000E+00 -0.44771390296E+03  0.44771390296E+03  0.00000000000E+00 0. -1.
          6    1    1    2  502    0 -0.44840290872E+02 -0.14888532412E+03 -0.24646338865E+03  0.33838689893E+03  0.17200000000E+03 0.  1.
         -6    1    1    2    0  501  0.44840290872E+02  0.14888532412E+03 -0.68737917182E+02  0.24183960115E+03  0.17200000000E+03 0.  1.
</event>
<event>
 4    1  0.3196149E-002  0.2291470E+03  0.7818608E-02  0.1127242E+00
         -1   -1    0    0    0  501 -0.00000000000E+00  0.00000000000E+00  0.15926783577E+03  0.15926783577E+03  0.00000000000E+00 0.  1.
          1   -1    0    0  502    0  0.00000000000E+00 -0.00000000000E+00 -0.42482501526E+03  0.42482501526E+03  0.00000000000E+00 0. -1.
          6    1    1    2  502    0  0.70542879811E+02 -0.13397032428E+03  0.54273188664E+01  0.22921125947E+03  0.17200000000E+03 0. -1.
         -6    1    1    2    0  501 -0.70542879811E+02  0.13397032428E+03 -0.27098449835E+03  0.35488159156E+03  0.17200000000E+03 0. -1.
</event>
<event>
 4    1  0.3196149E-002  0.1746907E+03  0.7818608E-02  0.1173043E+00
          2   -1    0    0  502    0  0.00000000000E+00  0.00000000000E+00  0.22164075017E+03  0.22164075017E+03  0.00000000000E+00 0. -1.
         -2   -1    0    0    0  501 -0.00000000000E+00 -0.00000000000E+00 -0.17742712231E+03  0.17742712231E+03  0.00000000000E+00 0.  1.
          6    1    1    2  502    0  0.18114622836E+02 -0.24590321661E+02  0.11654050151E+03  0.20999645705E+03  0.17200000000E+03 0. -1.
         -6    1    1    2    0  501 -0.18114622836E+02  0.24590321661E+02 -0.72326873659E+02  0.18907141543E+03  0.17200000000E+03 0.  1.
</event>
<event>
 4    1  0.3196149E-002  0.4213961E+03  0.7818608E-02  0.1036613E+00
         -1   -1    0    0    0  501 -0.00000000000E+00  0.00000000000E+00  0.98793216985E+03  0.98793216985E+03  0.00000000000E+00 0.  1.
          1   -1    0    0  502    0  0.00000000000E+00 -0.00000000000E+00 -0.33942673960E+03  0.33942673960E+03  0.00000000000E+00 0. -1.
          6    1    1    2  502    0 -0.85968449624E+02 -0.37496684733E+03 -0.13096019188E+03  0.44127687769E+03  0.17200000000E+03 0. -1.
         -6    1    1    2    0  501  0.85968449624E+02  0.37496684733E+03  0.77946562213E+03  0.88608203176E+03  0.17200000000E+03 0.  1.
</event>
<event>
 4    1  0.3196149E-002  0.2637556E+03  0.7818608E-02  0.1104908E+00
         -1   -1    0    0    0  501 -0.00000000000E+00  0.00000000000E+00  0.13298692956E+03  0.13298692956E+03  0.00000000000E+00 0.  1.
          1   -1    0    0  502    0  0.00000000000E+00 -0.00000000000E+00 -0.55237372262E+03  0.55237372262E+03  0.00000000000E+00 0. -1.
          6    1    1    2  502    0 -0.10554075101E+03  0.16983576088E+03 -0.13082120857E+03  0.29441675294E+03  0.17200000000E+03 0. -1.
         -6    1    1    2    0  501  0.10554075101E+03 -0.16983576088E+03 -0.28856558450E+03  0.39094389924E+03  0.17200000000E+03 0.  1.
</event>
<event>
 4    1  0.3196149E-002  0.1745468E+03  0.7818608E-02  0.1173187E+00
         -2   -1    0    0    0  501 -0.00000000000E+00  0.00000000000E+00  0.71024217234E+02  0.71024217234E+02  0.00000000000E+00 0.  1.
          2   -1    0    0  502    0  0.00000000000E+00 -0.00000000000E+00 -0.57173370858E+03  0.57173370858E+03  0.00000000000E+00 0. -1.
          6    1    1    2  502    0  0.27351617880E+02  0.11596664801E+02 -0.89755428796E+02  0.19627182843E+03  0.17200000000E+03 0.  1.
         -6    1    1    2    0  501 -0.27351617880E+02 -0.11596664801E+02 -0.41095406255E+03  0.44648609739E+03  0.17200000000E+03 0. -1.
</event>
<event>
 4    1  0.3196149E-002  0.1948473E+03  0.7818608E-02  0.1154161E+00
         -2   -1    0    0    0  501 -0.00000000000E+00  0.00000000000E+00  0.67712322355E+02  0.67712322355E+02  0.00000000000E+00 0.  1.
          2   -1    0    0  502    0  0.00000000000E+00 -0.00000000000E+00 -0.10011736667E+04  0.10011736667E+04  0.00000000000E+00 0. -1.
          6    1    1    2  502    0  0.44991832754E+02  0.79732001769E+02 -0.82122785226E+03  0.84402644653E+03  0.17200000000E+03 0. -1.
         -6    1    1    2    0  501 -0.44991832754E+02 -0.79732001769E+02 -0.11223349210E+03  0.22485954254E+03  0.17200000000E+03 0.  1.
</event>
<event>
 4    1  0.3196149E-002  0.2459843E+03  0.7818608E-02  0.1115869E+00
         -2   -1    0    0    0  501 -0.00000000000E+00  0.00000000000E+00  0.12469037980E+03  0.12469037980E+03  0.00000000000E+00 0.  1.
          2   -1    0    0  502    0  0.00000000000E+00 -0.00000000000E+00 -0.62139745222E+03  0.62139745222E+03  0.00000000000E+00 0. -1.
          6    1    1    2  502    0 -0.67107932921E+02  0.16254480855E+03 -0.42295616850E+03  0.48928540743E+03  0.17200000000E+03 0. -1.
         -6    1    1    2    0  501  0.67107932921E+02 -0.16254480855E+03 -0.73750903913E+02  0.25680242459E+03  0.17200000000E+03 0.  1.
</event>
<event>
 4    1  0.3196149E-002  0.1773252E+03  0.7818608E-02  0.1170417E+00
         -1   -1    0    0    0  501 -0.00000000000E+00  0.00000000000E+00  0.10405799048E+04  0.10405799048E+04  0.00000000000E+00 0.  1.
          1   -1    0    0  502    0  0.00000000000E+00 -0.00000000000E+00 -0.35455760839E+02  0.35455760839E+02  0.00000000000E+00 0. -1.
          6    1    1    2  502    0  0.21483369239E+02 -0.37399017677E+02  0.29577329233E+03  0.34485658198E+03  0.17200000000E+03 0. -1.
         -6    1    1    2    0  501 -0.21483369239E+02  0.37399017677E+02  0.70935085167E+03  0.73117908370E+03  0.17200000000E+03 0.  1.
</event>
<event>
 4    1  0.3196149E-002  0.2681546E+03  0.7818608E-02  0.1102340E+00
         -1   -1    0    0    0  501 -0.00000000000E+00  0.00000000000E+00  0.77199421155E+02  0.77199421155E+02  0.00000000000E+00 0.  1.
          1   -1    0    0  502    0  0.00000000000E+00 -0.00000000000E+00 -0.94762467774E+03  0.94762467774E+03  0.00000000000E+00 0. -1.
          6    1    1    2  502    0  0.15764973319E+03  0.13217211813E+03 -0.36825426938E+03  0.45554156133E+03  0.17200000000E+03 0.  1.
         -6    1    1    2    0  501 -0.15764973319E+03 -0.13217211813E+03 -0.50217098721E+03  0.56928253757E+03  0.17200000000E+03 0.  1.
</event>
<event>
 4    1  0.3196149E-002  0.2037934E+03  0.7818608E-02  0.1146577E+00
         -1   -1    0    0    0  501 -0.00000000000E+00  0.00000000000E+00  0.14441738323E+03  0.14441738323E+03  0.00000000000E+00 0.  1.
          1   -1    0    0  502    0  0.00000000000E+00 -0.00000000000E+00 -0.55937494756E+03  0.55937494756E+03  0.00000000000E+00 0. -1.
          6    1    1    2  502    0 -0.10739679372E+03  0.20339184339E+02 -0.45277033747E+03  0.49652062617E+03  0.17200000000E+03 0. -1.
         -6    1    1    2    0  501  0.10739679372E+03 -0.20339184339E+02  0.37812773139E+02  0.20727170462E+03  0.17200000000E+03 0.  1.
</event>
<event>
 4    1  0.3196149E-002  0.2018596E+03  0.7818608E-02  0.1148179E+00
         -1   -1    0    0    0  501 -0.00000000000E+00  0.00000000000E+00  0.50766047174E+02  0.50766047174E+02  0.00000000000E+00 0.  1.
          1   -1    0    0  502    0  0.00000000000E+00 -0.00000000000E+00 -0.80876658582E+03  0.80876658582E+03  0.00000000000E+00 0. -1.
          6    1    1    2  502    0  0.10129298046E+03 -0.30050542661E+02 -0.34162187911E+03  0.39680324002E+03  0.17200000000E+03 0.  1.
         -6    1    1    2    0  501 -0.10129298046E+03  0.30050542661E+02 -0.41637865954E+03  0.46272939298E+03  0.17200000000E+03 0. -1.
</event>
<event>
 4    1  0.3196149E-002  0.3009591E+03  0.7818608E-02  0.1084762E+00
          2   -1    0    0  502    0  0.00000000000E+00  0.00000000000E+00  0.19415035042E+04  0.19415035042E+04  0.00000000000E+00 0. -1.
         -2   -1    0    0    0  501 -0.00000000000E+00 -0.00000000000E+00 -0.50539931812E+02  0.50539931812E+02  0.00000000000E+00 0.  1.
          6    1    1    2  502    0  0.19328226810E+03 -0.15373463909E+03  0.12217124444E+04  0.12582359363E+04  0.17200000000E+03 0. -1.
         -6    1    1    2    0  501 -0.19328226810E+03  0.15373463909E+03  0.66925112796E+03  0.73380749975E+03  0.17200000000E+03 0.  1.
</event>
<event>
 4    1  0.3196149E-002  0.5179467E+03  0.7818608E-02  0.1009198E+00
          2   -1    0    0  502    0  0.00000000000E+00  0.00000000000E+00  0.27364362801E+04  0.27364362801E+04  0.00000000000E+00 0. -1.
         -2   -1    0    0    0  501 -0.00000000000E+00 -0.00000000000E+00 -0.11711068206E+03  0.11711068206E+03  0.00000000000E+00 0.  1.
          6    1    1    2  502    0 -0.14592888450E+02 -0.48833573517E+03  0.18854839450E+04  0.19553307775E+04  0.17200000000E+03 0. -1.
         -6    1    1    2    0  501  0.14592888450E+02  0.48833573517E+03  0.73384165306E+03  0.89821618467E+03  0.17200000000E+03 0.  1.
</event>
<event>
 4    1  0.3196149E-002  0.5707986E+03  0.7818608E-02  0.9967913E-01
          2   -1    0    0  502    0  0.00000000000E+00  0.00000000000E+00  0.98811461712E+03  0.98811461712E+03  0.00000000000E+00 0. -1.
         -2   -1    0    0    0  501 -0.00000000000E+00 -0.00000000000E+00 -0.47281190922E+03  0.47281190922E+03  0.00000000000E+00 0.  1.
          6    1    1    2  502    0  0.45729448394E+03 -0.29514199227E+03 -0.14418250364E+03  0.58872713119E+03  0.17200000000E+03 0. -1.
         -6    1    1    2    0  501 -0.45729448394E+03  0.29514199227E+03  0.65948521155E+03  0.87219939514E+03  0.17200000000E+03 0.  1.
</event>
<event>
 4    1  0.3196149E-002  0.1865102E+03  0.7818608E-02  0.1161647E+00
         -1   -1    0    0    0  501 -0.00000000000E+00  0.00000000000E+00  0.24458388882E+03  0.24458388882E+03  0.00000000000E+00 0.  1.
          1   -1    0    0  502    0  0.00000000000E+00 -0.00000000000E+00 -0.16339997747E+03  0.16339997747E+03  0.00000000000E+00 0. -1.
          6    1    1    2  502    0  0.65398179021E+02 -0.30415990167E+02 -0.32841477836E+02  0.18937955788E+03  0.17200000000E+03 0.  1.
         -6    1    1    2    0  501 -0.65398179021E+02  0.30415990167E+02  0.11402538918E+03  0.21860430841E+03  0.17200000000E+03 0.  1.
</event>
<event>
 4    1  0.3196149E-002  0.2639252E+03  0.7818608E-02  0.1104808E+00
          4   -1    0    0  502    0  0.00000000000E+00  0.00000000000E+00  0.10518016559E+03  0.10518016559E+03  0.00000000000E+00 0. -1.
         -4   -1    0    0    0  501 -0.00000000000E+00 -0.00000000000E+00 -0.69849457912E+03  0.69849457912E+03  0.00000000000E+00 0.  1.
          6    1    1    2  502    0  0.51672490108E+02  0.19339717879E+03 -0.20513295291E+03  0.33426941734E+03  0.17200000000E+03 0. -1.
         -6    1    1    2    0  501 -0.51672490108E+02 -0.19339717879E+03 -0.38818146062E+03  0.46940532738E+03  0.17200000000E+03 0.  1.
</event>
<event>
 4    1  0.3196149E-002  0.1791062E+03  0.7818608E-02  0.1168671E+00
          2   -1    0    0  502    0  0.00000000000E+00  0.00000000000E+00  0.27133468853E+04  0.27133468853E+04  0.00000000000E+00 0. -1.
         -2   -1    0    0    0  501 -0.00000000000E+00 -0.00000000000E+00 -0.11847296201E+02  0.11847296201E+02  0.00000000000E+00 0.  1.
          6    1    1    2  502    0  0.36697417900E+02 -0.33886942323E+02  0.12886357443E+04  0.13010231000E+04  0.17200000000E+03 0.  1.
         -6    1    1    2    0  501 -0.36697417900E+02  0.33886942323E+02  0.14128638448E+04  0.14241710815E+04  0.17200000000E+03 0. -1.
</event>
<event>
 4    1  0.3196149E-002  0.4077337E+03  0.7818608E-02  0.1041134E+00
         -2   -1    0    0    0  501 -0.00000000000E+00  0.00000000000E+00  0.39291289124E+03  0.39291289124E+03  0.00000000000E+00 0.  1.
          2   -1    0    0  502    0  0.00000000000E+00 -0.00000000000E+00 -0.42593477384E+03  0.42593477384E+03  0.00000000000E+00 0. -1.
          6    1    1    2  502    0  0.35821188289E+03 -0.91361842762E+02  0.16810670739E+02  0.40808006323E+03  0.17200000000E+03 0. -1.
         -6    1    1    2    0  501 -0.35821188289E+03  0.91361842762E+02 -0.49832553334E+02  0.41076760185E+03  0.17200000000E+03 0.  1.
</event>
<event>
 4    1  0.3196149E-002  0.1727712E+03  0.7818608E-02  0.1174988E+00
          2   -1    0    0  502    0  0.00000000000E+00  0.00000000000E+00  0.85005348635E+03  0.85005348635E+03  0.00000000000E+00 0. -1.
         -2   -1    0    0    0  501 -0.00000000000E+00 -0.00000000000E+00 -0.40791918763E+02  0.40791918763E+02  0.00000000000E+00 0.  1.
          6    1    1    2  502    0  0.66162876550E+01 -0.14903924887E+02  0.57079185697E+03  0.59636670449E+03  0.17200000000E+03 0. -1.
         -6    1    1    2    0  501 -0.66162876550E+01  0.14903924887E+02  0.23846971062E+03  0.29447870062E+03  0.17200000000E+03 0.  1.
</event>
<event>
 4    1  0.3196149E-002  0.2331587E+03  0.7818608E-02  0.1124436E+00
          1   -1    0    0  502    0  0.00000000000E+00  0.00000000000E+00  0.16038495023E+04  0.16038495023E+04  0.00000000000E+00 0. -1.
         -1   -1    0    0    0  501 -0.00000000000E+00 -0.00000000000E+00 -0.41515387694E+02  0.41515387694E+02  0.00000000000E+00 0.  1.
          6    1    1    2  502    0 -0.11731287816E+03 -0.10496035727E+03  0.11336248923E+04  0.11573540446E+04  0.17200000000E+03 0. -1.
         -6    1    1    2    0  501  0.11731287816E+03  0.10496035727E+03  0.42870922224E+03  0.48801084539E+03  0.17200000000E+03 0.  1.
</event>
<event>
 4    1  0.3196149E-002  0.1867499E+03  0.7818608E-02  0.1161426E+00
          1   -1    0    0  502    0  0.00000000000E+00  0.00000000000E+00  0.48478978777E+03  0.48478978777E+03  0.00000000000E+00 0. -1.
         -1   -1    0    0    0  501 -0.00000000000E+00 -0.00000000000E+00 -0.99572255811E+02  0.99572255811E+02  0.00000000000E+00 0.  1.
          6    1    1    2  502    0 -0.24572871981E+02  0.68466862662E+02  0.38688823850E+02  0.19071539637E+03  0.17200000000E+03 0.  1.
         -6    1    1    2    0  501  0.24572871981E+02 -0.68466862662E+02  0.34652870811E+03  0.39364664722E+03  0.17200000000E+03 0. -1.
</event>
<event>
 4    1  0.3196149E-002  0.2209788E+03  0.7818608E-02  0.1133155E+00
         -1   -1    0    0    0  501 -0.00000000000E+00  0.00000000000E+00  0.35160166846E+02  0.35160166846E+02  0.00000000000E+00 0.  1.
          1   -1    0    0  502    0  0.00000000000E+00 -0.00000000000E+00 -0.14701315171E+04  0.14701315171E+04  0.00000000000E+00 0. -1.
          6    1    1    2  502    0  0.42880294645E+02  0.13194276583E+03 -0.54049398033E+03  0.58392238858E+03  0.17200000000E+03 0.  1.
         -6    1    1    2    0  501 -0.42880294645E+02 -0.13194276583E+03 -0.89447736997E+03  0.92136929540E+03  0.17200000000E+03 0. -1.
</event>
<event>
 4    1  0.3196149E-002  0.2275432E+03  0.7818608E-02  0.1128381E+00
         -2   -1    0    0    0  501 -0.00000000000E+00  0.00000000000E+00  0.63687460493E+02  0.63687460493E+02  0.00000000000E+00 0.  1.
          2   -1    0    0  502    0  0.00000000000E+00 -0.00000000000E+00 -0.81330627605E+03  0.81330627605E+03  0.00000000000E+00 0. -1.
          6    1    1    2  502    0  0.14554421862E+03  0.31761111010E+02 -0.38374801224E+03  0.44613722625E+03  0.17200000000E+03 0. -1.
         -6    1    1    2    0  501 -0.14554421862E+03 -0.31761111010E+02 -0.36587080332E+03  0.43085651030E+03  0.17200000000E+03 0. -1.
</event>
<event>
 4    1  0.3196149E-002  0.3636472E+03  0.7818608E-02  0.1057149E+00
         -2   -1    0    0    0  501 -0.00000000000E+00  0.00000000000E+00  0.76975500552E+02  0.76975500552E+02  0.00000000000E+00 0.  1.
          2   -1    0    0  502    0  0.00000000000E+00 -0.00000000000E+00 -0.22391423546E+04  0.22391423546E+04  0.00000000000E+00 0. -1.
          6    1    1    2  502    0  0.18025711687E+02 -0.31989115392E+03 -0.16398019517E+04  0.16796397582E+04  0.17200000000E+03 0. -1.
         -6    1    1    2    0  501 -0.18025711687E+02  0.31989115392E+03 -0.52236490230E+03  0.63647809687E+03  0.17200000000E+03 0.  1.
</event>
<event>
 4    1  0.3196149E-002  0.3736609E+03  0.7818608E-02  0.1053302E+00
          2   -1    0    0  502    0  0.00000000000E+00  0.00000000000E+00  0.76539206649E+03  0.76539206649E+03  0.00000000000E+00 0. -1.
         -2   -1    0    0    0  501 -0.00000000000E+00 -0.00000000000E+00 -0.18539318451E+03  0.18539318451E+03  0.00000000000E+00 0.  1.
          6    1    1    2  502    0  0.24741266379E+03  0.22096479050E+03  0.35020692090E+03  0.51212044706E+03  0.17200000000E+03 0.  1.
         -6    1    1    2    0  501 -0.24741266379E+03 -0.22096479050E+03  0.22979196108E+03  0.43866480395E+03  0.17200000000E+03 0. -1.
</event>
<event>
 4    1  0.3196149E-002  0.2088062E+03  0.7818608E-02  0.1142515E+00
          2   -1    0    0  502    0  0.00000000000E+00  0.00000000000E+00  0.60716832014E+03  0.60716832014E+03  0.00000000000E+00 0. -1.
         -2   -1    0    0    0  501 -0.00000000000E+00 -0.00000000000E+00 -0.12007245211E+03  0.12007245211E+03  0.00000000000E+00 0.  1.
          6    1    1    2  502    0  0.62074535585E+02  0.10081059431E+03  0.47408282196E+03  0.51802948368E+03  0.17200000000E+03 0. -1.
         -6    1    1    2    0  501 -0.62074535585E+02 -0.10081059431E+03  0.13013046071E+02  0.20921128856E+03  0.17200000000E+03 0.  1.
</event>
<event>
 4    1  0.3196149E-002  0.3043716E+03  0.7818608E-02  0.1083075E+00
         -2   -1    0    0    0  501 -0.00000000000E+00  0.00000000000E+00  0.80203706431E+02  0.80203706431E+02  0.00000000000E+00 0.  1.
          2   -1    0    0  502    0  0.00000000000E+00 -0.00000000000E+00 -0.15484324343E+04  0.15484324343E+04  0.00000000000E+00 0. -1.
          6    1    1    2  502    0  0.15213176876E+03  0.19978486182E+03 -0.11445417434E+04  0.11843216913E+04  0.17200000000E+03 0. -1.
         -6    1    1    2    0  501 -0.15213176876E+03 -0.19978486182E+03 -0.32368698451E+03  0.44431444948E+03  0.17200000000E+03 0.  1.
</event>
<event>
 4    1  0.3196149E-002  0.2034379E+03  0.7818608E-02  0.1146870E+00
          2   -1    0    0  502    0  0.00000000000E+00  0.00000000000E+00  0.21332663440E+04  0.21332663440E+04  0.00000000000E+00 0. -1.
         -2   -1    0    0    0  501 -0.00000000000E+00 -0.00000000000E+00 -0.57075502319E+02  0.57075502319E+02  0.00000000000E+00 0.  1.
          6    1    1    2  502    0 -0.63548025167E+01 -0.10845557410E+03  0.19278744395E+04  0.19385785642E+04  0.17200000000E+03 0. -1.
         -6    1    1    2    0  501  0.63548025167E+01  0.10845557410E+03  0.14831640217E+03  0.25176328212E+03  0.17200000000E+03 0.  1.
</event>
<event>
 4    1  0.3196149E-002  0.2188395E+03  0.7818608E-02  0.1134751E+00
          2   -1    0    0  502    0  0.00000000000E+00  0.00000000000E+00  0.99353602798E+03  0.99353602798E+03  0.00000000000E+00 0. -1.
         -2   -1    0    0    0  501 -0.00000000000E+00 -0.00000000000E+00 -0.48797723908E+02  0.48797723908E+02  0.00000000000E+00 0.  1.
          6    1    1    2  502    0  0.13530186641E+03 -0.38425377275E+00  0.52993732408E+03  0.57334484402E+03  0.17200000000E+03 0. -1.
         -6    1    1    2    0  501 -0.13530186641E+03  0.38425377275E+00  0.41480097999E+03  0.46898890787E+03  0.17200000000E+03 0.  1.
</event>
<event>
 4    1  0.3196149E-002  0.1884048E+03  0.7818608E-02  0.1159908E+00
         -2   -1    0    0    0  501 -0.00000000000E+00  0.00000000000E+00  0.43325860440E+03  0.43325860440E+03  0.00000000000E+00 0.  1.
          2   -1    0    0  502    0  0.00000000000E+00 -0.00000000000E+00 -0.85347703297E+02  0.85347703297E+02  0.00000000000E+00 0. -1.
          6    1    1    2  502    0 -0.71072251358E+02 -0.29344339385E+02  0.22585404992E+03  0.29411971547E+03  0.17200000000E+03 0. -1.
         -6    1    1    2    0  501  0.71072251358E+02  0.29344339385E+02  0.12205685119E+03  0.22448659223E+03  0.17200000000E+03 0.  1.
</event>
<event>
 4    1  0.3196149E-002  0.2812512E+03  0.7818608E-02  0.1095007E+00
         -1   -1    0    0    0  501 -0.00000000000E+00  0.00000000000E+00  0.10138201413E+03  0.10138201413E+03  0.00000000000E+00 0.  1.
          1   -1    0    0  502    0  0.00000000000E+00 -0.00000000000E+00 -0.27347916472E+04  0.27347916472E+04  0.00000000000E+00 0. -1.
          6    1    1    2  502    0  0.11501095503E+03 -0.19050128700E+03 -0.25155533698E+04  0.25312271760E+04  0.17200000000E+03 0. -1.
         -6    1    1    2    0  501 -0.11501095503E+03  0.19050128700E+03 -0.11785626326E+03  0.30494648533E+03  0.17200000000E+03 0.  1.
</event>
<event>
 4    1  0.3196149E-002  0.1733861E+03  0.7818608E-02  0.1174362E+00
         -1   -1    0    0    0  501 -0.00000000000E+00  0.00000000000E+00  0.78995243058E+02  0.78995243058E+02  0.00000000000E+00 0.  1.
          1   -1    0    0  502    0  0.00000000000E+00 -0.00000000000E+00 -0.91677675731E+03  0.91677675731E+03  0.00000000000E+00 0. -1.
          6    1    1    2  502    0  0.13279875524E+02  0.17388735091E+02 -0.79966433429E+03  0.81824554428E+03  0.17200000000E+03 0. -1.
         -6    1    1    2    0  501 -0.13279875524E+02 -0.17388735091E+02 -0.38117179961E+02  0.17752645609E+03  0.17200000000E+03 0.  1.
</event>
<event>
 4    1  0.3196149E-002  0.1757471E+03  0.7818608E-02  0.1171984E+00
         -2   -1    0    0    0  501 -0.00000000000E+00  0.00000000000E+00  0.19683360392E+03  0.19683360392E+03  0.00000000000E+00 0.  1.
          2   -1    0    0  502    0  0.00000000000E+00 -0.00000000000E+00 -0.19618195280E+03  0.19618195280E+03  0.00000000000E+00 0. -1.
          6    1    1    2  502    0 -0.21775815709E+02 -0.28790079565E+02  0.88235820499E+02  0.19665354014E+03  0.17200000000E+03 0.  1.
         -6    1    1    2    0  501  0.21775815709E+02  0.28790079565E+02 -0.87584169382E+02  0.19636201659E+03  0.17200000000E+03 0. -1.
</event>
<event>
 4    1  0.3196149E-002  0.2185977E+03  0.7818608E-02  0.1134933E+00
         -2   -1    0    0    0  501 -0.00000000000E+00  0.00000000000E+00  0.16440229400E+03  0.16440229400E+03  0.00000000000E+00 0.  1.
          2   -1    0    0  502    0  0.00000000000E+00 -0.00000000000E+00 -0.36005467766E+03  0.36005467766E+03  0.00000000000E+00 0. -1.
          6    1    1    2  502    0  0.13487511238E+03 -0.31046880061E+01 -0.21294948570E+03  0.30517604507E+03  0.17200000000E+03 0. -1.
         -6    1    1    2    0  501 -0.13487511238E+03  0.31046880061E+01  0.17297102028E+02  0.21928092659E+03  0.17200000000E+03 0.  1.
</event>
<event>
 4    1  0.3196149E-002  0.2221490E+03  0.7818608E-02  0.1132291E+00
          2   -1    0    0  502    0  0.00000000000E+00  0.00000000000E+00  0.73279669179E+03  0.73279669179E+03  0.00000000000E+00 0. -1.
         -2   -1    0    0    0  501 -0.00000000000E+00 -0.00000000000E+00 -0.73384760986E+02  0.73384760986E+02  0.00000000000E+00 0.  1.
          6    1    1    2  502    0 -0.37259872625E+02 -0.13556501020E+03  0.44534670876E+03  0.49767847161E+03  0.17200000000E+03 0.  1.
         -6    1    1    2    0  501  0.37259872625E+02  0.13556501020E+03  0.21406522204E+03  0.30850298116E+03  0.17200000000E+03 0. -1.
</event>
<event>
 4    1  0.3196149E-002  0.4508368E+03  0.7818608E-02  0.1027473E+00
          1   -1    0    0  502    0  0.00000000000E+00  0.00000000000E+00  0.11558091490E+04  0.11558091490E+04  0.00000000000E+00 0. -1.
         -1   -1    0    0    0  501 -0.00000000000E+00 -0.00000000000E+00 -0.20629960220E+03  0.20629960220E+03  0.00000000000E+00 0.  1.
          6    1    1    2  502    0  0.11283613700E+02  0.41658437009E+03  0.73638846653E+03  0.86343606074E+03  0.17200000000E+03 0. -1.
         -6    1    1    2    0  501 -0.11283613700E+02 -0.41658437009E+03  0.21312108024E+03  0.49867269043E+03  0.17200000000E+03 0.  1.
</event>
<event>
 4    1  0.3196149E-002  0.3973345E+03  0.7818608E-02  0.1044707E+00
          2   -1    0    0  502    0  0.00000000000E+00  0.00000000000E+00  0.12510123671E+04  0.12510123671E+04  0.00000000000E+00 0. -1.
         -2   -1    0    0    0  501 -0.00000000000E+00 -0.00000000000E+00 -0.29476476991E+03  0.29476476991E+03  0.00000000000E+00 0.  1.
          6    1    1    2  502    0 -0.27180768572E+02 -0.35714411960E+03  0.10625983912E+04  0.11344558420E+04  0.17200000000E+03 0. -1.
         -6    1    1    2    0  501  0.27180768572E+02  0.35714411960E+03 -0.10635079404E+03  0.41132129503E+03  0.17200000000E+03 0.  1.
</event>
<event>
 4    1  0.3196149E-002  0.1969412E+03  0.7818608E-02  0.1152346E+00
         -3   -1    0    0    0  501 -0.00000000000E+00  0.00000000000E+00  0.91715398784E+03  0.91715398784E+03  0.00000000000E+00 0.  1.
          3   -1    0    0  502    0  0.00000000000E+00 -0.00000000000E+00 -0.68262050851E+02  0.68262050851E+02  0.00000000000E+00 0. -1.
          6    1    1    2  502    0  0.82162434685E+02 -0.49509317038E+02  0.12052644950E+03  0.23089491804E+03  0.17200000000E+03 0. -1.
         -6    1    1    2    0  501 -0.82162434685E+02  0.49509317038E+02  0.72836548748E+03  0.75452112065E+03  0.17200000000E+03 0.  1.
</event>
<event>
 4    1  0.3196149E-002  0.2733582E+03  0.7818608E-02  0.1099373E+00
          2   -1    0    0  502    0  0.00000000000E+00  0.00000000000E+00  0.16390513532E+04  0.16390513532E+04  0.00000000000E+00 0. -1.
         -2   -1    0    0    0  501 -0.00000000000E+00 -0.00000000000E+00 -0.53627863110E+02  0.53627863110E+02  0.00000000000E+00 0.  1.
          6    1    1    2  502    0  0.21234553847E+03 -0.70753267985E+01  0.11203647626E+04  0.11532310650E+04  0.17200000000E+03 0. -1.
         -6    1    1    2    0  501 -0.21234553847E+03  0.70753267985E+01  0.46505872748E+03  0.53944815132E+03  0.17200000000E+03 0.  1.
</event>
<event>
 4    1  0.3196149E-002  0.1898683E+03  0.7818608E-02  0.1158580E+00
         -2   -1    0    0    0  501 -0.00000000000E+00  0.00000000000E+00  0.89202801160E+02  0.89202801160E+02  0.00000000000E+00 0.  1.
          2   -1    0    0  502    0  0.00000000000E+00 -0.00000000000E+00 -0.44078004616E+03  0.44078004616E+03  0.00000000000E+00 0. -1.
          6    1    1    2  502    0  0.30856621590E+02  0.74255159223E+02 -0.25219497020E+03  0.31567746635E+03  0.17200000000E+03 0.  1.
         -6    1    1    2    0  501 -0.30856621590E+02 -0.74255159223E+02 -0.99382274795E+02  0.21430538097E+03  0.17200000000E+03 0.  1.
</event>
<event>
 4    1  0.3196149E-002  0.4939894E+03  0.7818608E-02  0.1015360E+00
          1   -1    0    0  502    0  0.00000000000E+00  0.00000000000E+00  0.31053655453E+04  0.31053655453E+04  0.00000000000E+00 0. -1.
         -1   -1    0    0    0  501 -0.00000000000E+00 -0.00000000000E+00 -0.80625663522E+02  0.80625663522E+02  0.00000000000E+00 0.  1.
          6    1    1    2  502    0 -0.92588284551E+02  0.45372783310E+03  0.17659953906E+04  0.18337844084E+04  0.17200000000E+03 0. -1.
         -6    1    1    2    0  501  0.92588284551E+02 -0.45372783310E+03  0.12587444912E+04  0.13522068004E+04  0.17200000000E+03 0.  1.
</event>
<event>
 4    1  0.3196149E-002  0.2624961E+03  0.7818608E-02  0.1105653E+00
         -2   -1    0    0    0  501 -0.00000000000E+00  0.00000000000E+00  0.10134964176E+03  0.10134964176E+03  0.00000000000E+00 0.  1.
          2   -1    0    0  502    0  0.00000000000E+00 -0.00000000000E+00 -0.12523752208E+04  0.12523752208E+04  0.00000000000E+00 0. -1.
          6    1    1    2  502    0 -0.17328440504E+03  0.96398660304E+02 -0.10331532116E+04  0.10659783043E+04  0.17200000000E+03 0. -1.
         -6    1    1    2    0  501  0.17328440504E+03 -0.96398660304E+02 -0.11787236743E+03  0.28774655817E+03  0.17200000000E+03 0.  1.
</event>
<event>
 4    1  0.3196149E-002  0.2740420E+03  0.7818608E-02  0.1098988E+00
          1   -1    0    0  502    0  0.00000000000E+00  0.00000000000E+00  0.95865537532E+03  0.95865537532E+03  0.00000000000E+00 0. -1.
         -1   -1    0    0    0  501 -0.00000000000E+00 -0.00000000000E+00 -0.91616494443E+02  0.91616494443E+02  0.00000000000E+00 0.  1.
          6    1    1    2  502    0  0.43527544218E+01  0.21329802020E+03  0.63344205794E+03  0.69017956552E+03  0.17200000000E+03 0. -1.
         -6    1    1    2    0  501 -0.43527544218E+01 -0.21329802020E+03  0.23359682294E+03  0.36009230424E+03  0.17200000000E+03 0.  1.
</event>
<event>
 4    1  0.3196149E-002  0.2039660E+03  0.7818608E-02  0.1146435E+00
          2   -1    0    0  502    0  0.00000000000E+00  0.00000000000E+00  0.42039636651E+03  0.42039636651E+03  0.00000000000E+00 0. -1.
         -2   -1    0    0    0  501 -0.00000000000E+00 -0.00000000000E+00 -0.56881239795E+03  0.56881239795E+03  0.00000000000E+00 0.  1.
          6    1    1    2  502    0  0.10894372090E+03 -0.12221974945E+02 -0.52373369030E+03  0.56204900974E+03  0.17200000000E+03 0.  1.
         -6    1    1    2    0  501 -0.10894372090E+03  0.12221974945E+02  0.37531765886E+03  0.42715975471E+03  0.17200000000E+03 0. -1.
</event>
<event>
 4    1  0.3196149E-002  0.1754245E+03  0.7818608E-02  0.1172306E+00
          3   -1    0    0  502    0  0.00000000000E+00  0.00000000000E+00  0.22362660884E+02  0.22362660884E+02  0.00000000000E+00 0. -1.
         -3   -1    0    0    0  501 -0.00000000000E+00 -0.00000000000E+00 -0.17075789707E+04  0.17075789707E+04  0.00000000000E+00 0.  1.
          6    1    1    2  502    0 -0.95306827750E+01  0.33150188363E+02 -0.46152121164E+03  0.49373636457E+03  0.17200000000E+03 0.  1.
         -6    1    1    2    0  501  0.95306827750E+01 -0.33150188363E+02 -0.12236950982E+04  0.12362052670E+04  0.17200000000E+03 0.  1.
</event>
<event>
 4    1  0.3196149E-002  0.1762530E+03  0.7818608E-02  0.1171479E+00
          2   -1    0    0  502    0  0.00000000000E+00  0.00000000000E+00  0.46176514054E+03  0.46176514054E+03  0.00000000000E+00 0. -1.
         -2   -1    0    0    0  501 -0.00000000000E+00 -0.00000000000E+00 -0.13764939964E+03  0.13764939964E+03  0.00000000000E+00 0.  1.
          6    1    1    2  502    0  0.38092253083E+02 -0.54857639817E+01  0.37635600007E+03  0.41558266583E+03  0.17200000000E+03 0. -1.
         -6    1    1    2    0  501 -0.38092253083E+02  0.54857639817E+01 -0.52240259167E+02  0.18383187436E+03  0.17200000000E+03 0.  1.
</event>
<event>
 4    1  0.3196149E-002  0.1918253E+03  0.7818608E-02  0.1156825E+00
         -1   -1    0    0    0  501 -0.00000000000E+00  0.00000000000E+00  0.35900652413E+03  0.35900652413E+03  0.00000000000E+00 0.  1.
          1   -1    0    0  502    0  0.00000000000E+00 -0.00000000000E+00 -0.33572896141E+03  0.33572896141E+03  0.00000000000E+00 0. -1.
          6    1    1    2  502    0  0.84033682808E+02 -0.12300537152E+02 -0.27788847109E+03  0.33766694452E+03  0.17200000000E+03 0. -1.
         -6    1    1    2    0  501 -0.84033682808E+02  0.12300537152E+02  0.30116603381E+03  0.35706854101E+03  0.17200000000E+03 0.  1.
</event>
<event>
 4    1  0.3196149E-002  0.8276191E+03  0.7818608E-02  0.9520878E-01
          2   -1    0    0  502    0  0.00000000000E+00  0.00000000000E+00  0.99986039809E+03  0.99986039809E+03  0.00000000000E+00 0. -1.
         -2   -1    0    0    0  501 -0.00000000000E+00 -0.00000000000E+00 -0.99710904918E+03  0.99710904918E+03  0.00000000000E+00 0.  1.
          6    1    1    2  502    0  0.65483242646E+03  0.47598721549E+03  0.55996058929E+03  0.99925432079E+03  0.17200000000E+03 0. -1.
         -6    1    1    2    0  501 -0.65483242646E+03 -0.47598721549E+03 -0.55720924037E+03  0.99771512648E+03  0.17200000000E+03 0.  1.
</event>
<event>
 4    1  0.3196149E-002  0.2599760E+03  0.7818608E-02  0.1107158E+00
          1   -1    0    0  502    0  0.00000000000E+00  0.00000000000E+00  0.15606274744E+04  0.15606274744E+04  0.00000000000E+00 0. -1.
         -1   -1    0    0    0  501 -0.00000000000E+00 -0.00000000000E+00 -0.61621957485E+02  0.61621957485E+02  0.00000000000E+00 0.  1.
          6    1    1    2  502    0  0.75343366616E+02 -0.17979676813E+03  0.11916960609E+04  0.12197241501E+04  0.17200000000E+03 0. -1.
         -6    1    1    2    0  501 -0.75343366616E+02  0.17979676813E+03  0.30730945594E+03  0.40252528173E+03  0.17200000000E+03 0.  1.
</event>
<event>
 4    1  0.3196149E-002  0.2201223E+03  0.7818608E-02  0.1133792E+00
         -1   -1    0    0    0  501 -0.00000000000E+00  0.00000000000E+00  0.19658670980E+03  0.19658670980E+03  0.00000000000E+00 0.  1.
          1   -1    0    0  502    0  0.00000000000E+00 -0.00000000000E+00 -0.25193433613E+03  0.25193433613E+03  0.00000000000E+00 0. -1.
          6    1    1    2  502    0 -0.89701725708E+02  0.10403572039E+03 -0.60684495382E+02  0.22833405066E+03  0.17200000000E+03 0. -1.
         -6    1    1    2    0  501  0.89701725708E+02 -0.10403572039E+03  0.53368690558E+01  0.22018699527E+03  0.17200000000E+03 0.  1.
</event>
<event>
 4    1  0.3196149E-002  0.2445485E+03  0.7818608E-02  0.1116799E+00
          2   -1    0    0  502    0  0.00000000000E+00  0.00000000000E+00  0.13900872486E+04  0.13900872486E+04  0.00000000000E+00 0. -1.
         -2   -1    0    0    0  501 -0.00000000000E+00 -0.00000000000E+00 -0.66962782410E+02  0.66962782410E+02  0.00000000000E+00 0.  1.
          6    1    1    2  502    0 -0.12861977492E+03 -0.11694838268E+03  0.10971736574E+04  0.11240969732E+04  0.17200000000E+03 0. -1.
         -6    1    1    2    0  501  0.12861977492E+03  0.11694838268E+03  0.22595080886E+03  0.33295305785E+03  0.17200000000E+03 0.  1.
</event>
<event>
 4    1  0.3196149E-002  0.6094352E+03  0.7818608E-02  0.9886022E-01
         -1   -1    0    0    0  501 -0.00000000000E+00  0.00000000000E+00  0.42127237481E+03  0.42127237481E+03  0.00000000000E+00 0.  1.
          1   -1    0    0  502    0  0.00000000000E+00 -0.00000000000E+00 -0.88312371893E+03  0.88312371893E+03  0.00000000000E+00 0. -1.
          6    1    1    2  502    0  0.58078153202E+03  0.67231561709E+02 -0.20420771806E+03  0.64273794267E+03  0.17200000000E+03 0. -1.
         -6    1    1    2    0  501 -0.58078153202E+03 -0.67231561709E+02 -0.25764362606E+03  0.66165815107E+03  0.17200000000E+03 0.  1.
</event>
<event>
 4    1  0.3196149E-002  0.2550740E+03  0.7818608E-02  0.1110139E+00
          1   -1    0    0  502    0  0.00000000000E+00  0.00000000000E+00  0.18554109035E+04  0.18554109035E+04  0.00000000000E+00 0. -1.
         -1   -1    0    0    0  501 -0.00000000000E+00 -0.00000000000E+00 -0.43285453313E+02  0.43285453313E+02  0.00000000000E+00 0.  1.
          6    1    1    2  502    0 -0.18793243139E+03 -0.12655844947E+02  0.13197410386E+04  0.13441648628E+04  0.17200000000E+03 0. -1.
         -6    1    1    2    0  501  0.18793243139E+03  0.12655844947E+02  0.49238441158E+03  0.55453149410E+03  0.17200000000E+03 0.  1.
</event>
<event>
 4    1  0.3196149E-002  0.1843897E+03  0.7818608E-02  0.1163621E+00
         -1   -1    0    0    0  501 -0.00000000000E+00  0.00000000000E+00  0.61903676774E+02  0.61903676774E+02  0.00000000000E+00 0.  1.
          1   -1    0    0  502    0  0.00000000000E+00 -0.00000000000E+00 -0.55142474706E+03  0.55142474706E+03  0.00000000000E+00 0. -1.
          6    1    1    2  502    0  0.50808488375E+02  0.42826067479E+02 -0.22542913727E+03  0.29123507769E+03  0.17200000000E+03 0.  1.
         -6    1    1    2    0  501 -0.50808488375E+02 -0.42826067479E+02 -0.26409193302E+03  0.32209334615E+03  0.17200000000E+03 0.  1.
</event>
<event>
 4    1  0.3196149E-002  0.2156819E+03  0.7818608E-02  0.1137144E+00
         -2   -1    0    0    0  501 -0.00000000000E+00  0.00000000000E+00  0.16029754066E+03  0.16029754066E+03  0.00000000000E+00 0.  1.
          2   -1    0    0  502    0  0.00000000000E+00 -0.00000000000E+00 -0.44001783411E+03  0.44001783411E+03  0.00000000000E+00 0. -1.
          6    1    1    2  502    0  0.12708032895E+03 -0.28023004981E+02  0.35282900211E+02  0.21854880888E+03  0.17200000000E+03 0.  1.
         -6    1    1    2    0  501 -0.12708032895E+03  0.28023004981E+02 -0.31500319366E+03  0.38176656589E+03  0.17200000000E+03 0. -1.
</event>
<event>
 4    1  0.3196149E-002  0.1929988E+03  0.7818608E-02  0.1155784E+00
         -1   -1    0    0    0  501 -0.00000000000E+00  0.00000000000E+00  0.30610590870E+02  0.30610590870E+02  0.00000000000E+00 0.  1.
          1   -1    0    0  502    0  0.00000000000E+00 -0.00000000000E+00 -0.13332772459E+04  0.13332772459E+04  0.00000000000E+00 0. -1.
          6    1    1    2  502    0  0.39314458081E+01  0.87459029803E+02 -0.44981559785E+03  0.48947176653E+03  0.17200000000E+03 0.  1.
         -6    1    1    2    0  501 -0.39314458081E+01 -0.87459029803E+02 -0.85285105714E+03  0.87441607020E+03  0.17200000000E+03 0.  1.
</event>
<event>
 4    1  0.3196149E-002  0.1720311E+03  0.7818608E-02  0.1175746E+00
         -2   -1    0    0    0  501 -0.00000000000E+00  0.00000000000E+00  0.32213618303E+02  0.32213618303E+02  0.00000000000E+00 0.  1.
          2   -1    0    0  502    0  0.00000000000E+00 -0.00000000000E+00 -0.12494949149E+04  0.12494949149E+04  0.00000000000E+00 0. -1.
          6    1    1    2  502    0 -0.18445624888E+01  0.27012994293E+01 -0.93837975857E+03  0.95401848553E+03  0.17200000000E+03 0. -1.
         -6    1    1    2    0  501  0.18445624888E+01 -0.27012994293E+01 -0.27890153799E+03  0.32769004764E+03  0.17200000000E+03 0.  1.
</event>
<event>
 4    1  0.3196149E-002  0.2284238E+03  0.7818608E-02  0.1127754E+00
          2   -1    0    0  502    0  0.00000000000E+00  0.00000000000E+00  0.16608429877E+03  0.16608429877E+03  0.00000000000E+00 0. -1.
         -2   -1    0    0    0  501 -0.00000000000E+00 -0.00000000000E+00 -0.38211720268E+03  0.38211720268E+03  0.00000000000E+00 0.  1.
          6    1    1    2  502    0 -0.13269215289E+03  0.70613059771E+02  0.75741672367E+01  0.22854929371E+03  0.17200000000E+03 0. -1.
         -6    1    1    2    0  501  0.13269215289E+03 -0.70613059771E+02 -0.22360707115E+03  0.31965220774E+03  0.17200000000E+03 0.  1.
</event>
<event>
 4    1  0.3196149E-002  0.1782832E+03  0.7818608E-02  0.1169475E+00
          2   -1    0    0  502    0  0.00000000000E+00  0.00000000000E+00  0.10356311822E+04  0.10356311822E+04  0.00000000000E+00 0. -1.
         -2   -1    0    0    0  501 -0.00000000000E+00 -0.00000000000E+00 -0.81670150109E+02  0.81670150109E+02  0.00000000000E+00 0.  1.
          6    1    1    2  502    0 -0.40282525121E+02 -0.24045892061E+02  0.91835129951E+03  0.93549665743E+03  0.17200000000E+03 0. -1.
         -6    1    1    2    0  501  0.40282525121E+02  0.24045892061E+02  0.35609732591E+02  0.18180467489E+03  0.17200000000E+03 0.  1.
</event>
<event>
 4    1  0.3196149E-002  0.2252314E+03  0.7818608E-02  0.1130042E+00
         -1   -1    0    0    0  501 -0.00000000000E+00  0.00000000000E+00  0.59572570722E+02  0.59572570722E+02  0.00000000000E+00 0.  1.
          1   -1    0    0  502    0  0.00000000000E+00 -0.00000000000E+00 -0.89084488794E+03  0.89084488794E+03  0.00000000000E+00 0. -1.
          6    1    1    2  502    0 -0.12049392054E+03  0.81402725223E+02 -0.51543741196E+03  0.56249881263E+03  0.17200000000E+03 0. -1.
         -6    1    1    2    0  501  0.12049392054E+03 -0.81402725223E+02 -0.31583490525E+03  0.38791864603E+03  0.17200000000E+03 0. -1.
</event>
<event>
 4    1  0.3196149E-002  0.2098671E+03  0.7818608E-02  0.1141671E+00
         -2   -1    0    0    0  501 -0.00000000000E+00  0.00000000000E+00  0.13856975831E+03  0.13856975831E+03  0.00000000000E+00 0.  1.
          2   -1    0    0  502    0  0.00000000000E+00 -0.00000000000E+00 -0.40040344107E+03  0.40040344107E+03  0.00000000000E+00 0. -1.
          6    1    1    2  502    0  0.83218380261E+02 -0.86803798533E+02 -0.85511552047E+01  0.21004123526E+03  0.17200000000E+03 0. -1.
         -6    1    1    2    0  501 -0.83218380261E+02  0.86803798533E+02 -0.25328252756E+03  0.32893196412E+03  0.17200000000E+03 0.  1.
</event>
<event>
 4    1  0.3196149E-002  0.1763284E+03  0.7818608E-02  0.1171405E+00
          1   -1    0    0  502    0  0.00000000000E+00  0.00000000000E+00  0.12672906231E+04  0.12672906231E+04  0.00000000000E+00 0. -1.
         -1   -1    0    0    0  501 -0.00000000000E+00 -0.00000000000E+00 -0.24569044726E+02  0.24569044726E+02  0.00000000000E+00 0.  1.
          6    1    1    2  502    0 -0.38820081895E+02  0.83331328864E+00  0.64575999882E+03  0.66940097793E+03  0.17200000000E+03 0. -1.
         -6    1    1    2    0  501  0.38820081895E+02 -0.83331328864E+00  0.59696157951E+03  0.62245868986E+03  0.17200000000E+03 0.  1.
</event>
<event>
 4    1  0.3196149E-002  0.1901729E+03  0.7818608E-02  0.1158305E+00
          1   -1    0    0  502    0  0.00000000000E+00  0.00000000000E+00  0.30119847441E+04  0.30119847441E+04  0.00000000000E+00 0. -1.
         -1   -1    0    0    0  501 -0.00000000000E+00 -0.00000000000E+00 -0.13687888813E+02  0.13687888813E+02  0.00000000000E+00 0.  1.
          6    1    1    2  502    0  0.76681092633E+02 -0.26490583964E+02  0.20292476430E+04  0.20381392832E+04  0.17200000000E+03 0. -1.
         -6    1    1    2    0  501 -0.76681092633E+02  0.26490583964E+02  0.96904921230E+03  0.98753334975E+03  0.17200000000E+03 0.  1.
</event>
<event>
 4    1  0.3196149E-002  0.8331088E+03  0.7818608E-02  0.9513292E-01
         -2   -1    0    0    0  501 -0.00000000000E+00  0.00000000000E+00  0.88838097610E+03  0.88838097610E+03  0.00000000000E+00 0.  1.
          2   -1    0    0  502    0  0.00000000000E+00 -0.00000000000E+00 -0.94629891178E+03  0.94629891178E+03  0.00000000000E+00 0. -1.
          6    1    1    2  502    0 -0.76841164730E+03 -0.27208423232E+03 -0.41203847335E+03  0.92943315666E+03  0.17200000000E+03 0. -1.
         -6    1    1    2    0  501  0.76841164730E+03  0.27208423232E+03  0.35412053767E+03  0.90524673121E+03  0.17200000000E+03 0.  1.
</event>
<event>
 4    1  0.3196149E-002  0.5898855E+03  0.7818608E-02  0.9926616E-01
         -2   -1    0    0    0  501 -0.00000000000E+00  0.00000000000E+00  0.39796617740E+03  0.39796617740E+03  0.00000000000E+00 0.  1.
          2   -1    0    0  502    0  0.00000000000E+00 -0.00000000000E+00 -0.96195191895E+03  0.96195191895E+03  0.00000000000E+00 0. -1.
          6    1    1    2  502    0  0.51366053217E+03  0.23352457120E+03 -0.48717679080E+03  0.76505300023E+03  0.17200000000E+03 0. -1.
         -6    1    1    2    0  501 -0.51366053217E+03 -0.23352457120E+03 -0.76808950752E+02  0.59486509612E+03  0.17200000000E+03 0.  1.
</event>
<event>
 4    1  0.3196149E-002  0.3296474E+03  0.7818608E-02  0.1071293E+00
          1   -1    0    0  502    0  0.00000000000E+00  0.00000000000E+00  0.23532565180E+03  0.23532565180E+03  0.00000000000E+00 0. -1.
         -1   -1    0    0    0  501 -0.00000000000E+00 -0.00000000000E+00 -0.46448418132E+03  0.46448418132E+03  0.00000000000E+00 0.  1.
          6    1    1    2  502    0  0.16777916934E+03  0.22568458685E+03 -0.87853838543E+02  0.34115345426E+03  0.17200000000E+03 0. -1.
         -6    1    1    2    0  501 -0.16777916934E+03 -0.22568458685E+03 -0.14130469098E+03  0.35865637886E+03  0.17200000000E+03 0.  1.
</event>
<event>
 4    1  0.3196149E-002  0.5034573E+03  0.7818608E-02  0.1012880E+00
          1   -1    0    0  502    0  0.00000000000E+00  0.00000000000E+00  0.24500054689E+03  0.24500054689E+03  0.00000000000E+00 0. -1.
         -1   -1    0    0    0  501 -0.00000000000E+00 -0.00000000000E+00 -0.10348182583E+04  0.10348182583E+04  0.00000000000E+00 0.  1.
          6    1    1    2  502    0 -0.33354677039E+03  0.33560664955E+03 -0.38492071702E+03  0.63374539813E+03  0.17200000000E+03 0. -1.
         -6    1    1    2    0  501  0.33354677039E+03 -0.33560664955E+03 -0.40489699441E+03  0.64607340708E+03  0.17200000000E+03 0.  1.
</event>
<event>
 4    1  0.3196149E-002  0.2497523E+03  0.7818608E-02  0.1113461E+00
          2   -1    0    0  502    0  0.00000000000E+00  0.00000000000E+00  0.17137006487E+04  0.17137006487E+04  0.00000000000E+00 0. -1.
         -2   -1    0    0    0  501 -0.00000000000E+00 -0.00000000000E+00 -0.56932608670E+02  0.56932608670E+02  0.00000000000E+00 0.  1.
          6    1    1    2  502    0 -0.18105812068E+03 -0.31920405659E+01  0.13600702294E+04  0.13828113614E+04  0.17200000000E+03 0. -1.
         -6    1    1    2    0  501  0.18105812068E+03  0.31920405659E+01  0.29669781058E+03  0.38782189597E+03  0.17200000000E+03 0.  1.
</event>
<event>
 4    1  0.3196149E-002  0.1884463E+03  0.7818608E-02  0.1159870E+00
         -2   -1    0    0    0  501 -0.00000000000E+00  0.00000000000E+00  0.40476589291E+03  0.40476589291E+03  0.00000000000E+00 0.  1.
          2   -1    0    0  502    0  0.00000000000E+00 -0.00000000000E+00 -0.88240511396E+02  0.88240511396E+02  0.00000000000E+00 0. -1.
          6    1    1    2  502    0 -0.17545479256E+02 -0.74967642186E+02  0.17692679797E+03  0.25848613707E+03  0.17200000000E+03 0.  1.
         -6    1    1    2    0  501  0.17545479256E+02  0.74967642186E+02  0.13959858355E+03  0.23452026724E+03  0.17200000000E+03 0.  1.
</event>
<event>
 4    1  0.3196149E-002  0.1778085E+03  0.7818608E-02  0.1169941E+00
         -2   -1    0    0    0  501 -0.00000000000E+00  0.00000000000E+00  0.13289382453E+02  0.13289382453E+02  0.00000000000E+00 0.  1.
          2   -1    0    0  502    0  0.00000000000E+00 -0.00000000000E+00 -0.26451679205E+04  0.26451679205E+04  0.00000000000E+00 0. -1.
          6    1    1    2  502    0  0.43086359093E+02  0.13244420353E+02 -0.17375637973E+04  0.17466378557E+04  0.17200000000E+03 0. -1.
         -6    1    1    2    0  501 -0.43086359093E+02 -0.13244420353E+02 -0.89431474069E+03  0.91181944728E+03  0.17200000000E+03 0.  1.
</event>
<event>
 4    1  0.3196149E-002  0.2564506E+03  0.7818608E-02  0.1109295E+00
         -2   -1    0    0    0  501 -0.00000000000E+00  0.00000000000E+00  0.36410957904E+03  0.36410957904E+03  0.00000000000E+00 0.  1.
          2   -1    0    0  502    0  0.00000000000E+00 -0.00000000000E+00 -0.19176782071E+03  0.19176782071E+03  0.00000000000E+00 0. -1.
          6    1    1    2  502    0  0.12361026289E+03  0.14458009218E+03  0.15317164027E+03  0.29871131805E+03  0.17200000000E+03 0. -1.
         -6    1    1    2    0  501 -0.12361026289E+03 -0.14458009218E+03  0.19170118055E+02  0.25716608169E+03  0.17200000000E+03 0. -1.
</event>
<event>
 4    1  0.3196149E-002  0.2085154E+03  0.7818608E-02  0.1142747E+00
         -2   -1    0    0    0  501 -0.00000000000E+00  0.00000000000E+00  0.24502240155E+02  0.24502240155E+02  0.00000000000E+00 0.  1.
          2   -1    0    0  502    0  0.00000000000E+00 -0.00000000000E+00 -0.18388741617E+04  0.18388741617E+04  0.00000000000E+00 0. -1.
          6    1    1    2  502    0  0.96852797536E+02 -0.67187964028E+02 -0.10815369726E+04  0.11014539981E+04  0.17200000000E+03 0. -1.
         -6    1    1    2    0  501 -0.96852797536E+02  0.67187964028E+02 -0.73283494895E+03  0.76192240373E+03  0.17200000000E+03 0.  1.
</event>
<event>
 4    1  0.3196149E-002  0.2050413E+03  0.7818608E-02  0.1145554E+00
          1   -1    0    0  502    0  0.00000000000E+00  0.00000000000E+00  0.15888143502E+04  0.15888143502E+04  0.00000000000E+00 0. -1.
         -1   -1    0    0    0  501 -0.00000000000E+00 -0.00000000000E+00 -0.18711153855E+03  0.18711153855E+03  0.00000000000E+00 0.  1.
          6    1    1    2  502    0 -0.11150190079E+03  0.50260485029E+01  0.15236345379E+04  0.15373692270E+04  0.17200000000E+03 0. -1.
         -6    1    1    2    0  501  0.11150190079E+03 -0.50260485029E+01 -0.12193172619E+03  0.23855666181E+03  0.17200000000E+03 0.  1.
</event>
<event>
 4    1  0.3196149E-002  0.6119543E+03  0.7818608E-02  0.9880910E-01
          1   -1    0    0  502    0  0.00000000000E+00  0.00000000000E+00  0.40469108866E+04  0.40469108866E+04  0.00000000000E+00 0. -1.
         -1   -1    0    0    0  501 -0.00000000000E+00 -0.00000000000E+00 -0.92638672436E+02  0.92638672436E+02  0.00000000000E+00 0.  1.
          6    1    1    2  502    0  0.75866472595E+02 -0.58236449092E+03  0.19084944751E+04  0.20042053995E+04  0.17200000000E+03 0. -1.
         -6    1    1    2    0  501 -0.75866472595E+02  0.58236449092E+03  0.20457777390E+04  0.21353441595E+04  0.17200000000E+03 0.  1.
</event>
<event>
 4    1  0.3196149E-002  0.2824326E+03  0.7818608E-02  0.1094368E+00
         -2   -1    0    0    0  501 -0.00000000000E+00  0.00000000000E+00  0.34648545634E+03  0.34648545634E+03  0.00000000000E+00 0.  1.
          2   -1    0    0  502    0  0.00000000000E+00 -0.00000000000E+00 -0.32992915034E+03  0.32992915034E+03  0.00000000000E+00 0. -1.
          6    1    1    2  502    0  0.94099500906E+02  0.20329643195E+03  0.19420342507E+03  0.34275811533E+03  0.17200000000E+03 0.  1.
         -6    1    1    2    0  501 -0.94099500906E+02 -0.20329643195E+03 -0.17764711906E+03  0.33365649136E+03  0.17200000000E+03 0. -1.
</event>
<event>
 4    1  0.3196149E-002  0.1803397E+03  0.7818608E-02  0.1167475E+00
          1   -1    0    0  502    0  0.00000000000E+00  0.00000000000E+00  0.63655854278E+03  0.63655854278E+03  0.00000000000E+00 0. -1.
         -1   -1    0    0    0  501 -0.00000000000E+00 -0.00000000000E+00 -0.53653958795E+02  0.53653958795E+02  0.00000000000E+00 0.  1.
          6    1    1    2  502    0  0.51626171616E+02 -0.16526710364E+02  0.36687901653E+03  0.40880631908E+03  0.17200000000E+03 0.  1.
         -6    1    1    2    0  501 -0.51626171616E+02  0.16526710364E+02  0.21602556746E+03  0.28140618249E+03  0.17200000000E+03 0.  1.
</event>
<event>
 4    1  0.3196149E-002  0.2894505E+03  0.7818608E-02  0.1090636E+00
          3   -1    0    0  502    0  0.00000000000E+00  0.00000000000E+00  0.79733011180E+03  0.79733011180E+03  0.00000000000E+00 0. -1.
         -3   -1    0    0    0  501 -0.00000000000E+00 -0.00000000000E+00 -0.10738926104E+03  0.10738926104E+03  0.00000000000E+00 0.  1.
          6    1    1    2  502    0 -0.99127457471E+02 -0.21064508667E+03  0.27860265900E+03  0.40174749155E+03  0.17200000000E+03 0. -1.
         -6    1    1    2    0  501  0.99127457471E+02  0.21064508667E+03  0.41133819176E+03  0.50297188128E+03  0.17200000000E+03 0.  1.
</event>
<event>
 4    1  0.3196149E-002  0.2144711E+03  0.7818608E-02  0.1138074E+00
         -2   -1    0    0    0  501 -0.00000000000E+00  0.00000000000E+00  0.69196938180E+02  0.69196938180E+02  0.00000000000E+00 0.  1.
          2   -1    0    0  502    0  0.00000000000E+00 -0.00000000000E+00 -0.11441116444E+04  0.11441116444E+04  0.00000000000E+00 0. -1.
          6    1    1    2  502    0 -0.72298872896E+02  0.10576725581E+03 -0.93014217408E+03  0.95454821954E+03  0.17200000000E+03 0. -1.
         -6    1    1    2    0  501  0.72298872896E+02 -0.10576725581E+03 -0.14477253217E+03  0.25876036307E+03  0.17200000000E+03 0.  1.
</event>
<event>
 4    1  0.3196149E-002  0.1818823E+03  0.7818608E-02  0.1165994E+00
         -1   -1    0    0    0  501 -0.00000000000E+00  0.00000000000E+00  0.11920589453E+03  0.11920589453E+03  0.00000000000E+00 0.  1.
          1   -1    0    0  502    0  0.00000000000E+00 -0.00000000000E+00 -0.28755234221E+03  0.28755234221E+03  0.00000000000E+00 0. -1.
          6    1    1    2  502    0  0.33915836005E+02 -0.48444769499E+02 -0.46171649929E+02  0.18765127466E+03  0.17200000000E+03 0.  1.
         -6    1    1    2    0  501 -0.33915836005E+02  0.48444769499E+02 -0.12217479775E+03  0.21910696208E+03  0.17200000000E+03 0. -1.
</event>
<event>
 4    1  0.3196149E-002  0.2780235E+03  0.7818608E-02  0.1096773E+00
          2   -1    0    0  502    0  0.00000000000E+00  0.00000000000E+00  0.26351196535E+04  0.26351196535E+04  0.00000000000E+00 0. -1.
         -2   -1    0    0    0  501 -0.00000000000E+00 -0.00000000000E+00 -0.71125854134E+02  0.71125854134E+02  0.00000000000E+00 0.  1.
          6    1    1    2  502    0 -0.16240662435E+03 -0.14607241064E+03  0.23192202955E+04  0.23358253017E+04  0.17200000000E+03 0. -1.
         -6    1    1    2    0  501  0.16240662435E+03  0.14607241064E+03  0.24477350378E+03  0.37042020589E+03  0.17200000000E+03 0.  1.
</event>
<event>
 4    1  0.3196149E-002  0.2237354E+03  0.7818608E-02  0.1131128E+00
          1   -1    0    0  502    0  0.00000000000E+00  0.00000000000E+00  0.30985487295E+03  0.30985487295E+03  0.00000000000E+00 0. -1.
         -1   -1    0    0    0  501 -0.00000000000E+00 -0.00000000000E+00 -0.36474877328E+03  0.36474877328E+03  0.00000000000E+00 0.  1.
          6    1    1    2  502    0 -0.13405225258E+03  0.50035339674E+02  0.22430951384E+03  0.31681587656E+03  0.17200000000E+03 0. -1.
         -6    1    1    2    0  501  0.13405225258E+03 -0.50035339674E+02 -0.27920341418E+03  0.35778776967E+03  0.17200000000E+03 0.  1.
</event>
<event>
 4    1  0.3196149E-002  0.2311877E+03  0.7818608E-02  0.1125807E+00
          2   -1    0    0  502    0  0.00000000000E+00  0.00000000000E+00  0.24220542845E+03  0.24220542845E+03  0.00000000000E+00 0. -1.
         -2   -1    0    0    0  501 -0.00000000000E+00 -0.00000000000E+00 -0.24181799886E+03  0.24181799886E+03  0.00000000000E+00 0.  1.
          6    1    1    2  502    0  0.15326799137E+03  0.19304930973E+02  0.71761010151E+02  0.24206899867E+03  0.17200000000E+03 0. -1.
         -6    1    1    2    0  501 -0.15326799137E+03 -0.19304930973E+02 -0.71373580570E+02  0.24195442864E+03  0.17200000000E+03 0.  1.
</event>
<event>
 4    1  0.3196149E-002  0.3568459E+03  0.7818608E-02  0.1059840E+00
         -2   -1    0    0    0  501 -0.00000000000E+00  0.00000000000E+00  0.12448605231E+04  0.12448605231E+04  0.00000000000E+00 0.  1.
          2   -1    0    0  502    0  0.00000000000E+00 -0.00000000000E+00 -0.10229231348E+03  0.10229231348E+03  0.00000000000E+00 0. -1.
          6    1    1    2  502    0  0.28381661550E+02 -0.31136711371E+03  0.56974523172E+03  0.67227124532E+03  0.17200000000E+03 0.  1.
         -6    1    1    2    0  501 -0.28381661550E+02  0.31136711371E+03  0.57282297789E+03  0.67488159125E+03  0.17200000000E+03 0. -1.
</event>
<event>
 4    1  0.3196149E-002  0.4025241E+03  0.7818608E-02  0.1042909E+00
         -2   -1    0    0    0  501 -0.00000000000E+00  0.00000000000E+00  0.17527350487E+03  0.17527350487E+03  0.00000000000E+00 0.  1.
          2   -1    0    0  502    0  0.00000000000E+00 -0.00000000000E+00 -0.94192387285E+03  0.94192387285E+03  0.00000000000E+00 0. -1.
          6    1    1    2  502    0  0.23711462202E+03 -0.27607659639E+03 -0.45948200184E+03  0.61085951008E+03  0.17200000000E+03 0. -1.
         -6    1    1    2    0  501 -0.23711462202E+03  0.27607659639E+03 -0.30716836615E+03  0.50633786764E+03  0.17200000000E+03 0.  1.
</event>
<event>
 4    1  0.3196149E-002  0.3829324E+03  0.7818608E-02  0.1049855E+00
          2   -1    0    0  502    0  0.00000000000E+00  0.00000000000E+00  0.15933122531E+04  0.15933122531E+04  0.00000000000E+00 0. -1.
         -2   -1    0    0    0  501 -0.00000000000E+00 -0.00000000000E+00 -0.18431214928E+03  0.18431214928E+03  0.00000000000E+00 0.  1.
          6    1    1    2  502    0 -0.34031870030E+03 -0.35162386233E+02  0.13334049223E+04  0.13873016607E+04  0.17200000000E+03 0. -1.
         -6    1    1    2    0  501  0.34031870030E+03  0.35162386233E+02  0.75595181582E+02  0.39032274166E+03  0.17200000000E+03 0.  1.
</event>
<event>
 4    1  0.3196149E-002  0.1923176E+03  0.7818608E-02  0.1156387E+00
         -2   -1    0    0    0  501 -0.00000000000E+00  0.00000000000E+00  0.36733362878E+02  0.36733362878E+02  0.00000000000E+00 0.  1.
          2   -1    0    0  502    0  0.00000000000E+00 -0.00000000000E+00 -0.12198730605E+04  0.12198730605E+04  0.00000000000E+00 0. -1.
          6    1    1    2  502    0  0.84951182603E+02 -0.13615165166E+02 -0.85410957434E+03  0.87549371279E+03  0.17200000000E+03 0.  1.
         -6    1    1    2    0  501 -0.84951182603E+02  0.13615165166E+02 -0.32903012329E+03  0.38111271060E+03  0.17200000000E+03 0.  1.
</event>
<event>
 4    1  0.3196149E-002  0.2215302E+03  0.7818608E-02  0.1132747E+00
          2   -1    0    0  502    0  0.00000000000E+00  0.00000000000E+00  0.94174287845E+03  0.94174287845E+03  0.00000000000E+00 0. -1.
         -2   -1    0    0    0  501 -0.00000000000E+00 -0.00000000000E+00 -0.67392445531E+02  0.67392445531E+02  0.00000000000E+00 0.  1.
          6    1    1    2  502    0 -0.13340954399E+03 -0.41152641159E+02  0.67743923310E+03  0.71274087917E+03  0.17200000000E+03 0. -1.
         -6    1    1    2    0  501  0.13340954399E+03  0.41152641159E+02  0.19691119983E+03  0.29639444482E+03  0.17200000000E+03 0.  1.
</event>
<event>
 4    1  0.3196149E-002  0.2816983E+03  0.7818608E-02  0.1094765E+00
          2   -1    0    0  502    0  0.00000000000E+00  0.00000000000E+00  0.42728646903E+03  0.42728646903E+03  0.00000000000E+00 0. -1.
         -2   -1    0    0    0  501 -0.00000000000E+00 -0.00000000000E+00 -0.19992322370E+03  0.19992322370E+03  0.00000000000E+00 0.  1.
          6    1    1    2  502    0 -0.20448036417E+03  0.89205884373E+02  0.19728169189E+03  0.34390983570E+03  0.17200000000E+03 0. -1.
         -6    1    1    2    0  501  0.20448036417E+03 -0.89205884373E+02  0.30081553431E+02  0.28329985703E+03  0.17200000000E+03 0.  1.
</event>
<event>
 4    1  0.3196149E-002  0.2225365E+03  0.7818608E-02  0.1132006E+00
         -1   -1    0    0    0  501 -0.00000000000E+00  0.00000000000E+00  0.52901237320E+03  0.52901237320E+03  0.00000000000E+00 0.  1.
          1   -1    0    0  502    0  0.00000000000E+00 -0.00000000000E+00 -0.10418645418E+03  0.10418645418E+03  0.00000000000E+00 0. -1.
          6    1    1    2  502    0  0.41499060974E+02  0.13496786553E+03  0.11155491727E+03  0.24893171022E+03  0.17200000000E+03 0. -1.
         -6    1    1    2    0  501 -0.41499060974E+02 -0.13496786553E+03  0.31327100175E+03  0.38426711715E+03  0.17200000000E+03 0.  1.
</event>
<event>
 4    1  0.3196149E-002  0.2502441E+03  0.7818608E-02  0.1113151E+00
         -2   -1    0    0    0  501 -0.00000000000E+00  0.00000000000E+00  0.51538256099E+02  0.51538256099E+02  0.00000000000E+00 0.  1.
          2   -1    0    0  502    0  0.00000000000E+00 -0.00000000000E+00 -0.30343584821E+04  0.30343584821E+04  0.00000000000E+00 0. -1.
          6    1    1    2  502    0  0.17369616867E+03  0.53551565884E+02 -0.26861401965E+04  0.26977715404E+04  0.17200000000E+03 0. -1.
         -6    1    1    2    0  501 -0.17369616867E+03 -0.53551565884E+02 -0.29668002950E+03  0.38812519775E+03  0.17200000000E+03 0.  1.
</event>
<event>
 4    1  0.3196149E-002  0.7153222E+03  0.7818608E-02  0.9691382E-01
         -1   -1    0    0    0  501 -0.00000000000E+00  0.00000000000E+00  0.12910960718E+04  0.12910960718E+04  0.00000000000E+00 0.  1.
          1   -1    0    0  502    0  0.00000000000E+00 -0.00000000000E+00 -0.46892014306E+03  0.46892014306E+03  0.00000000000E+00 0. -1.
          6    1    1    2  502    0 -0.43355294286E+03  0.54234087675E+03  0.64822447984E+02  0.71825324964E+03  0.17200000000E+03 0. -1.
         -6    1    1    2    0  501  0.43355294286E+03 -0.54234087675E+03  0.75735348073E+03  0.10417629652E+04  0.17200000000E+03 0.  1.
</event>
<event>
 4    1  0.3196149E-002  0.2647503E+03  0.7818608E-02  0.1104322E+00
          1   -1    0    0  502    0  0.00000000000E+00  0.00000000000E+00  0.33251155139E+03  0.33251155139E+03  0.00000000000E+00 0. -1.
         -1   -1    0    0    0  501 -0.00000000000E+00 -0.00000000000E+00 -0.29474882258E+03  0.29474882258E+03  0.00000000000E+00 0.  1.
          6    1    1    2  502    0 -0.18227197141E+03 -0.85355942281E+02  0.18626183106E+03  0.32370693251E+03  0.17200000000E+03 0. -1.
         -6    1    1    2    0  501  0.18227197141E+03  0.85355942281E+02 -0.14849910226E+03  0.30355344145E+03  0.17200000000E+03 0.  1.
</event>
<event>
 4    1  0.3196149E-002  0.2570714E+03  0.7818608E-02  0.1108916E+00
         -2   -1    0    0    0  501 -0.00000000000E+00  0.00000000000E+00  0.41642613879E+02  0.41642613879E+02  0.00000000000E+00 0.  1.
          2   -1    0    0  502    0  0.00000000000E+00 -0.00000000000E+00 -0.17626342458E+04  0.17626342458E+04  0.00000000000E+00 0. -1.
          6    1    1    2  502    0  0.11738038733E+03  0.15074335215E+03 -0.11452891198E+04  0.11737857051E+04  0.17200000000E+03 0. -1.
         -6    1    1    2    0  501 -0.11738038733E+03 -0.15074335215E+03 -0.57570251212E+03  0.63049115458E+03  0.17200000000E+03 0.  1.
</event>
<event>
 4    1  0.3196149E-002  0.3135916E+03  0.7818608E-02  0.1078637E+00
          2   -1    0    0  502    0  0.00000000000E+00  0.00000000000E+00  0.60728005016E+03  0.60728005016E+03  0.00000000000E+00 0. -1.
         -2   -1    0    0    0  501 -0.00000000000E+00 -0.00000000000E+00 -0.21340676285E+03  0.21340676285E+03  0.00000000000E+00 0.  1.
          6    1    1    2  502    0 -0.18113982379E+01  0.26220676105E+03  0.39846189763E+03  0.50706168320E+03  0.17200000000E+03 0. -1.
         -6    1    1    2    0  501  0.18113982379E+01 -0.26220676105E+03 -0.45886103204E+01  0.31362512981E+03  0.17200000000E+03 0.  1.
</event>
<event>
 4    1  0.3196149E-002  0.2486617E+03  0.7818608E-02  0.1114154E+00
         -3   -1    0    0    0  501 -0.00000000000E+00  0.00000000000E+00  0.43153426255E+02  0.43153426255E+02  0.00000000000E+00 0.  1.
          3   -1    0    0  502    0  0.00000000000E+00 -0.00000000000E+00 -0.14662467531E+04  0.14662467531E+04  0.00000000000E+00 0. -1.
          6    1    1    2  502    0 -0.91644826655E+02  0.15443404292E+03 -0.82543615522E+03  0.86207742936E+03  0.17200000000E+03 0. -1.
         -6    1    1    2    0  501  0.91644826655E+02 -0.15443404292E+03 -0.59765717158E+03  0.64732274995E+03  0.17200000000E+03 0. -1.
</event>
<event>
 4    1  0.3196149E-002  0.1808793E+03  0.7818608E-02  0.1166955E+00
         -2   -1    0    0    0  501 -0.00000000000E+00  0.00000000000E+00  0.25143144823E+03  0.25143144823E+03  0.00000000000E+00 0.  1.
          2   -1    0    0  502    0  0.00000000000E+00 -0.00000000000E+00 -0.13040543256E+03  0.13040543256E+03  0.00000000000E+00 0. -1.
          6    1    1    2  502    0  0.45100182843E+02  0.33155512192E+02  0.69379210925E+02  0.19372864886E+03  0.17200000000E+03 0.  1.
         -6    1    1    2    0  501 -0.45100182843E+02 -0.33155512192E+02  0.51646804746E+02  0.18810823193E+03  0.17200000000E+03 0. -1.
</event>
<event>
 4    1  0.3196149E-002  0.1762254E+03  0.7818608E-02  0.1171507E+00
         -1   -1    0    0    0  501 -0.00000000000E+00  0.00000000000E+00  0.57955891269E+02  0.57955891269E+02  0.00000000000E+00 0.  1.
          1   -1    0    0  502    0  0.00000000000E+00 -0.00000000000E+00 -0.67583644161E+03  0.67583644161E+03  0.00000000000E+00 0. -1.
          6    1    1    2  502    0  0.41089024405E+01  0.38138136316E+02 -0.47592333667E+03  0.50750214079E+03  0.17200000000E+03 0. -1.
         -6    1    1    2    0  501 -0.41089024405E+01 -0.38138136316E+02 -0.14195721367E+03  0.22629019208E+03  0.17200000000E+03 0.  1.
</event>
<event>
 4    1  0.3196149E-002  0.5915186E+03  0.7818608E-02  0.9923160E-01
         -4   -1    0    0    0  501 -0.00000000000E+00  0.00000000000E+00  0.17000560082E+03  0.17000560082E+03  0.00000000000E+00 0.  1.
          4   -1    0    0  502    0  0.00000000000E+00 -0.00000000000E+00 -0.20714671556E+04  0.20714671556E+04  0.00000000000E+00 0. -1.
          6    1    1    2  502    0 -0.52986454318E+03  0.19888137381E+03 -0.86081459911E+03  0.10444596732E+04  0.17200000000E+03 0. -1.
         -6    1    1    2    0  501  0.52986454318E+03 -0.19888137381E+03 -0.10406469557E+04  0.11970130832E+04  0.17200000000E+03 0.  1.
</event>
<event>
 4    1  0.3196149E-002  0.2937899E+03  0.7818608E-02  0.1088387E+00
          1   -1    0    0  502    0  0.00000000000E+00  0.00000000000E+00  0.15379708912E+04  0.15379708912E+04  0.00000000000E+00 0. -1.
         -1   -1    0    0    0  501 -0.00000000000E+00 -0.00000000000E+00 -0.68619393003E+02  0.68619393003E+02  0.00000000000E+00 0.  1.
          6    1    1    2  502    0  0.11730191959E+02  0.23788838906E+03  0.10775055622E+04  0.11168396123E+04  0.17200000000E+03 0. -1.
         -6    1    1    2    0  501 -0.11730191959E+02 -0.23788838906E+03  0.39184593597E+03  0.48975067186E+03  0.17200000000E+03 0.  1.
</event>
<event>
 4    1  0.3196149E-002  0.1981461E+03  0.7818608E-02  0.1151313E+00
          4   -1    0    0  502    0  0.00000000000E+00  0.00000000000E+00  0.10139268308E+03  0.10139268308E+03  0.00000000000E+00 0. -1.
         -4   -1    0    0    0  501 -0.00000000000E+00 -0.00000000000E+00 -0.77881288592E+03  0.77881288592E+03  0.00000000000E+00 0.  1.
          6    1    1    2  502    0 -0.50990777031E+02 -0.84129856649E+02 -0.26640423869E+02  0.19992899816E+03  0.17200000000E+03 0. -1.
         -6    1    1    2    0  501  0.50990777031E+02  0.84129856649E+02 -0.65077977897E+03  0.68027657085E+03  0.17200000000E+03 0.  1.
</event>
<event>
 4    1  0.3196149E-002  0.2021583E+03  0.7818608E-02  0.1147931E+00
         -1   -1    0    0    0  501 -0.00000000000E+00  0.00000000000E+00  0.39866639288E+03  0.39866639288E+03  0.00000000000E+00 0.  1.
          1   -1    0    0  502    0  0.00000000000E+00 -0.00000000000E+00 -0.15683122611E+03  0.15683122611E+03  0.00000000000E+00 0. -1.
          6    1    1    2  502    0  0.27761690636E+02  0.10253414492E+03  0.28437852521E+03  0.34891131817E+03  0.17200000000E+03 0.  1.
         -6    1    1    2    0  501 -0.27761690636E+02 -0.10253414492E+03 -0.42543358445E+02  0.20658630083E+03  0.17200000000E+03 0. -1.
</event>
<event>
 4    1  0.3196149E-002  0.2701325E+03  0.7818608E-02  0.1101204E+00
          2   -1    0    0  502    0  0.00000000000E+00  0.00000000000E+00  0.12586383992E+03  0.12586383992E+03  0.00000000000E+00 0. -1.
         -2   -1    0    0    0  501 -0.00000000000E+00 -0.00000000000E+00 -0.58280328475E+03  0.58280328475E+03  0.00000000000E+00 0.  1.
          6    1    1    2  502    0 -0.51167052660E+02  0.20191460345E+03 -0.25404936199E+03  0.37082698485E+03  0.17200000000E+03 0. -1.
         -6    1    1    2    0  501  0.51167052660E+02 -0.20191460345E+03 -0.20289008283E+03  0.33784013982E+03  0.17200000000E+03 0.  1.
</event>
<event>
 4    1  0.3196149E-002  0.1818368E+03  0.7818608E-02  0.1166037E+00
          2   -1    0    0  502    0  0.00000000000E+00  0.00000000000E+00  0.13723032506E+04  0.13723032506E+04  0.00000000000E+00 0. -1.
         -2   -1    0    0    0  501 -0.00000000000E+00 -0.00000000000E+00 -0.26724305725E+02  0.26724305725E+02  0.00000000000E+00 0.  1.
          6    1    1    2  502    0  0.30554257793E+02 -0.50468381190E+02  0.89223431469E+03  0.91057492414E+03  0.17200000000E+03 0. -1.
         -6    1    1    2    0  501 -0.30554257793E+02  0.50468381190E+02  0.45334463021E+03  0.48845263221E+03  0.17200000000E+03 0. -1.
</event>
<event>
 4    1  0.3196149E-002  0.2020544E+03  0.7818608E-02  0.1148017E+00
         -1   -1    0    0    0  501 -0.00000000000E+00  0.00000000000E+00  0.19253067816E+03  0.19253067816E+03  0.00000000000E+00 0.  1.
          1   -1    0    0  502    0  0.00000000000E+00 -0.00000000000E+00 -0.26357808310E+03  0.26357808310E+03  0.00000000000E+00 0. -1.
          6    1    1    2  502    0 -0.10005478089E+03  0.35086053114E+02 -0.13635812812E+03  0.24376121391E+03  0.17200000000E+03 0. -1.
         -6    1    1    2    0  501  0.10005478089E+03 -0.35086053114E+02  0.65310723184E+02  0.21234754735E+03  0.17200000000E+03 0.  1.
</event>
<event>
 4    1  0.3196149E-002  0.3163849E+03  0.7818608E-02  0.1077325E+00
         -3   -1    0    0    0  501 -0.00000000000E+00  0.00000000000E+00  0.44698455737E+03  0.44698455737E+03  0.00000000000E+00 0.  1.
          3   -1    0    0  502    0  0.00000000000E+00 -0.00000000000E+00 -0.24417894557E+03  0.24417894557E+03  0.00000000000E+00 0. -1.
          6    1    1    2  502    0 -0.20877230261E+03 -0.16410219276E+03  0.19194899543E+01  0.31639072118E+03  0.17200000000E+03 0. -1.
         -6    1    1    2    0  501  0.20877230261E+03  0.16410219276E+03  0.20088612184E+03  0.37477278177E+03  0.17200000000E+03 0.  1.
</event>
<event>
 4    1  0.3196149E-002  0.1811524E+03  0.7818608E-02  0.1166692E+00
          2   -1    0    0  502    0  0.00000000000E+00  0.00000000000E+00  0.62790858206E+02  0.62790858206E+02  0.00000000000E+00 0. -1.
         -2   -1    0    0    0  501 -0.00000000000E+00 -0.00000000000E+00 -0.56820016505E+03  0.56820016505E+03  0.00000000000E+00 0.  1.
          6    1    1    2  502    0  0.14365400097E+02  0.55007365375E+02 -0.16335377227E+03  0.24392750948E+03  0.17200000000E+03 0. -1.
         -6    1    1    2    0  501 -0.14365400097E+02 -0.55007365375E+02 -0.34205553458E+03  0.38706351378E+03  0.17200000000E+03 0.  1.
</event>
<event>
 4    1  0.3196149E-002  0.6078812E+03  0.7818608E-02  0.9889189E-01
          2   -1    0    0  502    0  0.00000000000E+00  0.00000000000E+00  0.24109723670E+04  0.24109723670E+04  0.00000000000E+00 0. -1.
         -2   -1    0    0    0  501 -0.00000000000E+00 -0.00000000000E+00 -0.27837499471E+03  0.27837499471E+03  0.00000000000E+00 0.  1.
          6    1    1    2  502    0  0.27895717365E+03 -0.51197502880E+03  0.19677586869E+04  0.20595129969E+04  0.17200000000E+03 0. -1.
         -6    1    1    2    0  501 -0.27895717365E+03  0.51197502880E+03  0.16483868546E+03  0.62983436479E+03  0.17200000000E+03 0.  1.
</event>
<event>
 4    1  0.3196149E-002  0.2382102E+03  0.7818608E-02  0.1120991E+00
         -1   -1    0    0    0  501 -0.00000000000E+00  0.00000000000E+00  0.96203623081E+02  0.96203623081E+02  0.00000000000E+00 0.  1.
          1   -1    0    0  502    0  0.00000000000E+00 -0.00000000000E+00 -0.18558605136E+04  0.18558605136E+04  0.00000000000E+00 0. -1.
          6    1    1    2  502    0 -0.12027868034E+03  0.11266385618E+03 -0.16859730150E+04  0.17027181543E+04  0.17200000000E+03 0. -1.
         -6    1    1    2    0  501  0.12027868034E+03 -0.11266385618E+03 -0.73683875465E+02  0.24934598240E+03  0.17200000000E+03 0.  1.
</event>
<event>
 4    1  0.3196149E-002  0.2523025E+03  0.7818608E-02  0.1111858E+00
          1   -1    0    0  502    0  0.00000000000E+00  0.00000000000E+00  0.34350485563E+04  0.34350485563E+04  0.00000000000E+00 0. -1.
         -1   -1    0    0    0  501 -0.00000000000E+00 -0.00000000000E+00 -0.18703209939E+02  0.18703209939E+02  0.00000000000E+00 0.  1.
          6    1    1    2  502    0  0.72780244934E+02 -0.16963364233E+03  0.15427005125E+04  0.15631958956E+04  0.17200000000E+03 0. -1.
         -6    1    1    2    0  501 -0.72780244934E+02  0.16963364233E+03  0.18736448339E+04  0.18905558707E+04  0.17200000000E+03 0. -1.
</event>
<event>
 4    1  0.3196149E-002  0.1763611E+03  0.7818608E-02  0.1171372E+00
         -2   -1    0    0    0  501 -0.00000000000E+00  0.00000000000E+00  0.74757739797E+02  0.74757739797E+02  0.00000000000E+00 0.  1.
          2   -1    0    0  502    0  0.00000000000E+00 -0.00000000000E+00 -0.66318974336E+03  0.66318974336E+03  0.00000000000E+00 0. -1.
          6    1    1    2  502    0 -0.35061006453E+02  0.17028529390E+02 -0.51945546215E+03  0.54857745318E+03  0.17200000000E+03 0. -1.
         -6    1    1    2    0  501  0.35061006453E+02 -0.17028529390E+02 -0.68976541417E+02  0.18937002997E+03  0.17200000000E+03 0.  1.
</event>
<event>
 4    1  0.3196149E-002  0.2525669E+03  0.7818608E-02  0.1111693E+00
          2   -1    0    0  502    0  0.00000000000E+00  0.00000000000E+00  0.49623065529E+02  0.49623065529E+02  0.00000000000E+00 0. -1.
         -2   -1    0    0    0  501 -0.00000000000E+00 -0.00000000000E+00 -0.18433452759E+04  0.18433452759E+04  0.00000000000E+00 0.  1.
          6    1    1    2  502    0 -0.15523948705E+03  0.10053217858E+03 -0.37618183192E+03  0.45310350687E+03  0.17200000000E+03 0. -1.
         -6    1    1    2    0  501  0.15523948705E+03 -0.10053217858E+03 -0.14175403785E+04  0.14398648346E+04  0.17200000000E+03 0.  1.
</event>
<event>
 4    1  0.3196149E-002  0.4188345E+03  0.7818608E-02  0.1037446E+00
          2   -1    0    0  502    0  0.00000000000E+00  0.00000000000E+00  0.67496791230E+03  0.67496791230E+03  0.00000000000E+00 0. -1.
         -2   -1    0    0    0  501 -0.00000000000E+00 -0.00000000000E+00 -0.37644438232E+03  0.37644438232E+03  0.00000000000E+00 0.  1.
          6    1    1    2  502    0  0.25617853212E+03  0.28321525913E+03  0.44177356378E+03  0.60875791985E+03  0.17200000000E+03 0. -1.
         -6    1    1    2    0  501 -0.25617853212E+03 -0.28321525913E+03 -0.14325003381E+03  0.44265437477E+03  0.17200000000E+03 0.  1.
</event>
<event>
 4    1  0.3196149E-002  0.1780087E+03  0.7818608E-02  0.1169744E+00
         -1   -1    0    0    0  501 -0.00000000000E+00  0.00000000000E+00  0.80902611228E+02  0.80902611228E+02  0.00000000000E+00 0.  1.
          1   -1    0    0  502    0  0.00000000000E+00 -0.00000000000E+00 -0.45828093249E+03  0.45828093249E+03  0.00000000000E+00 0. -1.
          6    1    1    2  502    0 -0.44955492071E+02  0.90602271269E+01 -0.29147071430E+03  0.34152929784E+03  0.17200000000E+03 0.  1.
         -6    1    1    2    0  501  0.44955492071E+02 -0.90602271269E+01 -0.85907606960E+02  0.19765424589E+03  0.17200000000E+03 0.  1.
</event>
<event>
 4    1  0.3196149E-002  0.2664791E+03  0.7818608E-02  0.1103312E+00
         -1   -1    0    0    0  501 -0.00000000000E+00  0.00000000000E+00  0.40009438690E+02  0.40009438690E+02  0.00000000000E+00 0.  1.
          1   -1    0    0  502    0  0.00000000000E+00 -0.00000000000E+00 -0.29872556793E+04  0.29872556793E+04  0.00000000000E+00 0. -1.
          6    1    1    2  502    0  0.19345578240E+03 -0.63260964116E+02 -0.24379110607E+04  0.24524317380E+04  0.17200000000E+03 0. -1.
         -6    1    1    2    0  501 -0.19345578240E+03  0.63260964116E+02 -0.50933517983E+03  0.57483337998E+03  0.17200000000E+03 0.  1.
</event>
<event>
 4    1  0.3196149E-002  0.2261614E+03  0.7818608E-02  0.1129371E+00
          2   -1    0    0  502    0  0.00000000000E+00  0.00000000000E+00  0.74739381722E+03  0.74739381722E+03  0.00000000000E+00 0. -1.
         -2   -1    0    0    0  501 -0.00000000000E+00 -0.00000000000E+00 -0.10880106396E+03  0.10880106396E+03  0.00000000000E+00 0.  1.
          6    1    1    2  502    0  0.14575243474E+03  0.17922743949E+02  0.58004758925E+03  0.62257867195E+03  0.17200000000E+03 0. -1.
         -6    1    1    2    0  501 -0.14575243474E+03 -0.17922743949E+02  0.58545164010E+02  0.23361620922E+03  0.17200000000E+03 0.  1.
</event>
<event>
 4    1  0.3196149E-002  0.1801067E+03  0.7818608E-02  0.1167700E+00
         -2   -1    0    0    0  501 -0.00000000000E+00  0.00000000000E+00  0.15351094859E+02  0.15351094859E+02  0.00000000000E+00 0.  1.
          2   -1    0    0  502    0  0.00000000000E+00 -0.00000000000E+00 -0.21194877218E+04  0.21194877218E+04  0.00000000000E+00 0. -1.
          6    1    1    2  502    0  0.53102256774E+02  0.58809802972E+01 -0.99348005904E+03  0.10096737410E+04  0.17200000000E+03 0. -1.
         -6    1    1    2    0  501 -0.53102256774E+02 -0.58809802972E+01 -0.11106565679E+04  0.11251650756E+04  0.17200000000E+03 0. -1.
</event>
<event>
 4    1  0.3196149E-002  0.2885719E+03  0.7818608E-02  0.1091097E+00
          1   -1    0    0  502    0  0.00000000000E+00  0.00000000000E+00  0.11296297713E+04  0.11296297713E+04  0.00000000000E+00 0. -1.
         -1   -1    0    0    0  501 -0.00000000000E+00 -0.00000000000E+00 -0.96153986963E+02  0.96153986963E+02  0.00000000000E+00 0.  1.
          6    1    1    2  502    0  0.44312045345E+02  0.22743385953E+03  0.81279509563E+03  0.86250193351E+03  0.17200000000E+03 0. -1.
         -6    1    1    2    0  501 -0.44312045345E+02 -0.22743385953E+03  0.22068068869E+03  0.36328182474E+03  0.17200000000E+03 0.  1.
</event>
<event>
 4    1  0.3196149E-002  0.1862723E+03  0.7818608E-02  0.1161867E+00
          1   -1    0    0  502    0  0.00000000000E+00  0.00000000000E+00  0.51706337334E+03  0.51706337334E+03  0.00000000000E+00 0. -1.
         -1   -1    0    0    0  501 -0.00000000000E+00 -0.00000000000E+00 -0.67665260539E+02  0.67665260539E+02  0.00000000000E+00 0.  1.
          6    1    1    2  502    0  0.70959926301E+02  0.88358845036E+01  0.19808864040E+03  0.27191265776E+03  0.17200000000E+03 0.  1.
         -6    1    1    2    0  501 -0.70959926301E+02 -0.88358845036E+01  0.25130947240E+03  0.31281597612E+03  0.17200000000E+03 0. -1.
</event>
<event>
 4    1  0.3196149E-002  0.1859540E+03  0.7818608E-02  0.1162162E+00
         -2   -1    0    0    0  501 -0.00000000000E+00  0.00000000000E+00  0.21127854434E+02  0.21127854434E+02  0.00000000000E+00 0.  1.
          2   -1    0    0  502    0  0.00000000000E+00 -0.00000000000E+00 -0.16927684457E+04  0.16927684457E+04  0.00000000000E+00 0. -1.
          6    1    1    2  502    0 -0.38980137230E+02 -0.58952761595E+02 -0.99185203039E+03  0.10091329592E+04  0.17200000000E+03 0. -1.
         -6    1    1    2    0  501  0.38980137230E+02  0.58952761595E+02 -0.67978856090E+03  0.70476334094E+03  0.17200000000E+03 0.  1.
</event>
<event>
 4    1  0.3196149E-002  0.4935284E+03  0.7818608E-02  0.1015482E+00
         -2   -1    0    0    0  501 -0.00000000000E+00  0.00000000000E+00  0.44396628788E+03  0.44396628788E+03  0.00000000000E+00 0.  1.
          2   -1    0    0  502    0  0.00000000000E+00 -0.00000000000E+00 -0.86696875123E+03  0.86696875123E+03  0.00000000000E+00 0. -1.
          6    1    1    2  502    0  0.26199587324E+03 -0.38124064393E+03 -0.60869164091E+03  0.78362987430E+03  0.17200000000E+03 0. -1.
         -6    1    1    2    0  501 -0.26199587324E+03  0.38124064393E+03  0.18568917755E+03  0.52730516482E+03  0.17200000000E+03 0.  1.
</event>
<event>
 4    1  0.3196149E-002  0.2260098E+03  0.7818608E-02  0.1129480E+00
         -2   -1    0    0    0  501 -0.00000000000E+00  0.00000000000E+00  0.37305325129E+03  0.37305325129E+03  0.00000000000E+00 0.  1.
          2   -1    0    0  502    0  0.00000000000E+00 -0.00000000000E+00 -0.14231207473E+03  0.14231207473E+03  0.00000000000E+00 0. -1.
          6    1    1    2  502    0 -0.12109837238E+03 -0.82653553554E+02  0.16550420280E+03  0.28012866124E+03  0.17200000000E+03 0. -1.
         -6    1    1    2    0  501  0.12109837238E+03  0.82653553554E+02  0.65236973764E+02  0.23523666477E+03  0.17200000000E+03 0.  1.
</event>
<event>
 4    1  0.3196149E-002  0.2123493E+03  0.7818608E-02  0.1139719E+00
          2   -1    0    0  502    0  0.00000000000E+00  0.00000000000E+00  0.53271843438E+03  0.53271843438E+03  0.00000000000E+00 0. -1.
         -2   -1    0    0    0  501 -0.00000000000E+00 -0.00000000000E+00 -0.88853383157E+02  0.88853383157E+02  0.00000000000E+00 0.  1.
          6    1    1    2  502    0  0.10373401748E+03  0.68902063216E+02  0.28956480045E+03  0.35908218329E+03  0.17200000000E+03 0. -1.
         -6    1    1    2    0  501 -0.10373401748E+03 -0.68902063216E+02  0.15430025078E+03  0.26248963425E+03  0.17200000000E+03 0.  1.
</event>
<event>
 4    1  0.3196149E-002  0.2126903E+03  0.7818608E-02  0.1139453E+00
          2   -1    0    0  502    0  0.00000000000E+00  0.00000000000E+00  0.17298394459E+04  0.17298394459E+04  0.00000000000E+00 0. -1.
         -2   -1    0    0    0  501 -0.00000000000E+00 -0.00000000000E+00 -0.27930003543E+02  0.27930003543E+02  0.00000000000E+00 0.  1.
          6    1    1    2  502    0 -0.67337387235E+02  0.10544588964E+03  0.10727620003E+04  0.10936432090E+04  0.17200000000E+03 0. -1.
         -6    1    1    2    0  501  0.67337387235E+02 -0.10544588964E+03  0.62914744203E+03  0.66412624039E+03  0.17200000000E+03 0.  1.
</event>
<event>
 4    1  0.3196149E-002  0.3171593E+03  0.7818608E-02  0.1076964E+00
         -2   -1    0    0    0  501 -0.00000000000E+00  0.00000000000E+00  0.47128568224E+02  0.47128568224E+02  0.00000000000E+00 0.  1.
          2   -1    0    0  502    0  0.00000000000E+00 -0.00000000000E+00 -0.27368464628E+04  0.27368464628E+04  0.00000000000E+00 0. -1.
          6    1    1    2  502    0  0.47167726967E+02 -0.26226171117E+03 -0.19979574009E+04  0.20229739928E+04  0.17200000000E+03 0. -1.
         -6    1    1    2    0  501 -0.47167726967E+02  0.26226171117E+03 -0.69176049367E+03  0.76100103825E+03  0.17200000000E+03 0.  1.
</event>
<event>
 4    1  0.3196149E-002  0.3466702E+03  0.7818608E-02  0.1063990E+00
         -2   -1    0    0    0  501 -0.00000000000E+00  0.00000000000E+00  0.31071243582E+03  0.31071243582E+03  0.00000000000E+00 0.  1.
          2   -1    0    0  502    0  0.00000000000E+00 -0.00000000000E+00 -0.95727549477E+03  0.95727549477E+03  0.00000000000E+00 0. -1.
          6    1    1    2  502    0  0.29717954833E+03  0.47755065686E+02 -0.81271001421E+03  0.88355973055E+03  0.17200000000E+03 0. -1.
         -6    1    1    2    0  501 -0.29717954833E+03 -0.47755065686E+02  0.16614695526E+03  0.38442820004E+03  0.17200000000E+03 0.  1.
</event>
<event>
 4    1  0.3196149E-002  0.3352366E+03  0.7818608E-02  0.1068843E+00
          2   -1    0    0  502    0  0.00000000000E+00  0.00000000000E+00  0.40839967837E+03  0.40839967837E+03  0.00000000000E+00 0. -1.
         -2   -1    0    0    0  501 -0.00000000000E+00 -0.00000000000E+00 -0.32527412338E+03  0.32527412338E+03  0.00000000000E+00 0.  1.
          6    1    1    2  502    0  0.10530309795E+03 -0.26778875307E+03  0.18552223903E+03  0.38314756933E+03  0.17200000000E+03 0. -1.
         -6    1    1    2    0  501 -0.10530309795E+03  0.26778875307E+03 -0.10239668404E+03  0.35052623242E+03  0.17200000000E+03 0.  1.
</event>
<event>
 4    1  0.3196149E-002  0.1771269E+03  0.7818608E-02  0.1170613E+00
         -2   -1    0    0    0  501 -0.00000000000E+00  0.00000000000E+00  0.10726032395E+03  0.10726032395E+03  0.00000000000E+00 0.  1.
          2   -1    0    0  502    0  0.00000000000E+00 -0.00000000000E+00 -0.32657269626E+03  0.32657269626E+03  0.00000000000E+00 0. -1.
          6    1    1    2  502    0  0.42180200525E+02  0.32803663668E+01 -0.17971922458E+03  0.25233495558E+03  0.17200000000E+03 0. -1.
         -6    1    1    2    0  501 -0.42180200525E+02 -0.32803663668E+01 -0.39593147719E+02  0.18149806463E+03  0.17200000000E+03 0.  1.
</event>
<event>
 4    1  0.3196149E-002  0.1797961E+03  0.7818608E-02  0.1168001E+00
          1   -1    0    0  502    0  0.00000000000E+00  0.00000000000E+00  0.89745439310E+03  0.89745439310E+03  0.00000000000E+00 0. -1.
         -1   -1    0    0    0  501 -0.00000000000E+00 -0.00000000000E+00 -0.37645721756E+02  0.37645721756E+02  0.00000000000E+00 0.  1.
          6    1    1    2  502    0  0.52203854074E+02  0.41711033409E+01  0.52705455972E+03  0.55687803818E+03  0.17200000000E+03 0. -1.
         -6    1    1    2    0  501 -0.52203854074E+02 -0.41711033409E+01  0.33275411162E+03  0.37822207668E+03  0.17200000000E+03 0.  1.
</event>
<event>
 4    1  0.3196149E-002  0.2871365E+03  0.7818608E-02  0.1091854E+00
         -3   -1    0    0    0  501 -0.00000000000E+00  0.00000000000E+00  0.88243736028E+03  0.88243736028E+03  0.00000000000E+00 0.  1.
          3   -1    0    0  502    0  0.00000000000E+00 -0.00000000000E+00 -0.11328672436E+03  0.11328672436E+03  0.00000000000E+00 0. -1.
          6    1    1    2  502    0 -0.90401905555E+02  0.21140216325E+03  0.17614651362E+03  0.33686046580E+03  0.17200000000E+03 0.  1.
         -6    1    1    2    0  501  0.90401905555E+02 -0.21140216325E+03  0.59300412230E+03  0.65886361883E+03  0.17200000000E+03 0.  1.
</event>
<event>
 4    1  0.3196149E-002  0.1818066E+03  0.7818608E-02  0.1166066E+00
         -2   -1    0    0    0  501 -0.00000000000E+00  0.00000000000E+00  0.11247777747E+02  0.11247777747E+02  0.00000000000E+00 0.  1.
          2   -1    0    0  502    0  0.00000000000E+00 -0.00000000000E+00 -0.30314466669E+04  0.30314466669E+04  0.00000000000E+00 0. -1.
          6    1    1    2  502    0 -0.55420563700E+02  0.19954882418E+02 -0.17762306982E+04  0.17855108875E+04  0.17200000000E+03 0. -1.
         -6    1    1    2    0  501  0.55420563700E+02 -0.19954882418E+02 -0.12439681909E+04  0.12571835571E+04  0.17200000000E+03 0.  1.
</event>
<event>
 4    1  0.3196149E-002  0.2515116E+03  0.7818608E-02  0.1112353E+00
         -2   -1    0    0    0  501 -0.00000000000E+00  0.00000000000E+00  0.17547712838E+03  0.17547712838E+03  0.00000000000E+00 0.  1.
          2   -1    0    0  502    0  0.00000000000E+00 -0.00000000000E+00 -0.37970165385E+03  0.37970165385E+03  0.00000000000E+00 0. -1.
          6    1    1    2  502    0  0.17263360475E+03  0.62223265919E+02 -0.16454921406E+03  0.30055704976E+03  0.17200000000E+03 0. -1.
         -6    1    1    2    0  501 -0.17263360475E+03 -0.62223265919E+02 -0.39675311416E+02  0.25462173247E+03  0.17200000000E+03 0.  1.
</event>
<event>
 4    1  0.3196149E-002  0.3462791E+03  0.7818608E-02  0.1064153E+00
         -2   -1    0    0    0  501 -0.00000000000E+00  0.00000000000E+00  0.26739292372E+03  0.26739292372E+03  0.00000000000E+00 0.  1.
          2   -1    0    0  502    0  0.00000000000E+00 -0.00000000000E+00 -0.45727667042E+03  0.45727667042E+03  0.00000000000E+00 0. -1.
          6    1    1    2  502    0  0.21892941202E+03 -0.20590076664E+03 -0.14531605438E+03  0.37553424453E+03  0.17200000000E+03 0. -1.
         -6    1    1    2    0  501 -0.21892941202E+03  0.20590076664E+03 -0.44567692320E+02  0.34913534962E+03  0.17200000000E+03 0.  1.
</event>
<event>
 4    1  0.3196149E-002  0.2710773E+03  0.7818608E-02  0.1100665E+00
          1   -1    0    0  502    0  0.00000000000E+00  0.00000000000E+00  0.79553702214E+03  0.79553702214E+03  0.00000000000E+00 0. -1.
         -1   -1    0    0    0  501 -0.00000000000E+00 -0.00000000000E+00 -0.94471834843E+02  0.94471834843E+02  0.00000000000E+00 0.  1.
          6    1    1    2  502    0 -0.85289824330E+02  0.19137535821E+03  0.41692612646E+03  0.49730300299E+03  0.17200000000E+03 0. -1.
         -6    1    1    2    0  501  0.85289824330E+02 -0.19137535821E+03  0.28413906084E+03  0.39270585399E+03  0.17200000000E+03 0.  1.
</event>
<event>
 4    1  0.3196149E-002  0.2456875E+03  0.7818608E-02  0.1116061E+00
         -2   -1    0    0    0  501 -0.00000000000E+00  0.00000000000E+00  0.10393500362E+03  0.10393500362E+03  0.00000000000E+00 0.  1.
          2   -1    0    0  502    0  0.00000000000E+00 -0.00000000000E+00 -0.79142904478E+03  0.79142904478E+03  0.00000000000E+00 0. -1.
          6    1    1    2  502    0  0.13929035505E+03  0.10666098551E+03 -0.57471584009E+03  0.62502853190E+03  0.17200000000E+03 0. -1.
         -6    1    1    2    0  501 -0.13929035505E+03 -0.10666098551E+03 -0.11277820108E+03  0.27033551650E+03  0.17200000000E+03 0.  1.
</event>
<event>
 4    1  0.3196149E-002  0.4332937E+03  0.7818608E-02  0.1032825E+00
         -2   -1    0    0    0  501 -0.00000000000E+00  0.00000000000E+00  0.34018610493E+03  0.34018610493E+03  0.00000000000E+00 0.  1.
          2   -1    0    0  502    0  0.00000000000E+00 -0.00000000000E+00 -0.62262605183E+03  0.62262605183E+03  0.00000000000E+00 0. -1.
          6    1    1    2  502    0 -0.38168481458E+03  0.11169670548E+03  0.21048853568E+02  0.43380468639E+03  0.17200000000E+03 0. -1.
         -6    1    1    2    0  501  0.38168481458E+03 -0.11169670548E+03 -0.30348880046E+03  0.52900747037E+03  0.17200000000E+03 0.  1.
</event>
<event>
 4    1  0.3196149E-002  0.2925317E+03  0.7818608E-02  0.1089035E+00
         -2   -1    0    0    0  501 -0.00000000000E+00  0.00000000000E+00  0.90364694766E+03  0.90364694766E+03  0.00000000000E+00 0.  1.
          2   -1    0    0  502    0  0.00000000000E+00 -0.00000000000E+00 -0.12068900910E+03  0.12068900910E+03  0.00000000000E+00 0. -1.
          6    1    1    2  502    0  0.84227743555E+02  0.22112551835E+03  0.15380666105E+03  0.33050158341E+03  0.17200000000E+03 0. -1.
         -6    1    1    2    0  501 -0.84227743555E+02 -0.22112551835E+03  0.62915127751E+03  0.69383437335E+03  0.17200000000E+03 0.  1.
</event>
<event>
 4    1  0.3196149E-002  0.1877922E+03  0.7818608E-02  0.1160468E+00
         -2   -1    0    0    0  501 -0.00000000000E+00  0.00000000000E+00  0.46088636960E+02  0.46088636960E+02  0.00000000000E+00 0.  1.
          2   -1    0    0  502    0  0.00000000000E+00 -0.00000000000E+00 -0.11556270609E+04  0.11556270609E+04  0.00000000000E+00 0. -1.
          6    1    1    2  502    0 -0.32432065151E+02 -0.68044759142E+02 -0.90402698420E+03  0.92332589927E+03  0.17200000000E+03 0. -1.
         -6    1    1    2    0  501  0.32432065151E+02  0.68044759142E+02 -0.20551143975E+03  0.27838979860E+03  0.17200000000E+03 0.  1.
</event>
<event>
 4    1  0.3196149E-002  0.1926093E+03  0.7818608E-02  0.1156129E+00
          3   -1    0    0  502    0  0.00000000000E+00  0.00000000000E+00  0.23997933825E+03  0.23997933825E+03  0.00000000000E+00 0. -1.
         -3   -1    0    0    0  501 -0.00000000000E+00 -0.00000000000E+00 -0.15568085811E+03  0.15568085811E+03  0.00000000000E+00 0.  1.
          6    1    1    2  502    0  0.15253253349E+01 -0.86671825448E+02  0.58711524121E+02  0.20135882153E+03  0.17200000000E+03 0. -1.
         -6    1    1    2    0  501 -0.15253253349E+01  0.86671825448E+02  0.25586956020E+02  0.19430137483E+03  0.17200000000E+03 0. -1.
</event>
<event>
 4    1  0.3196149E-002  0.2207878E+03  0.7818608E-02  0.1133297E+00
          2   -1    0    0  502    0  0.00000000000E+00  0.00000000000E+00  0.86399268826E+03  0.86399268826E+03  0.00000000000E+00 0. -1.
         -2   -1    0    0    0  501 -0.00000000000E+00 -0.00000000000E+00 -0.57326043734E+02  0.57326043734E+02  0.00000000000E+00 0.  1.
          6    1    1    2  502    0  0.33062075408E+01  0.13839186523E+03  0.34544855702E+03  0.40997798101E+03  0.17200000000E+03 0.  1.
         -6    1    1    2    0  501 -0.33062075408E+01 -0.13839186523E+03  0.46121808751E+03  0.51134075098E+03  0.17200000000E+03 0. -1.
</event>
<event>
 4    1  0.3196149E-002  0.2774170E+03  0.7818608E-02  0.1097108E+00
         -2   -1    0    0    0  501 -0.00000000000E+00  0.00000000000E+00  0.31849740165E+03  0.31849740165E+03  0.00000000000E+00 0.  1.
          2   -1    0    0  502    0  0.00000000000E+00 -0.00000000000E+00 -0.56792667515E+03  0.56792667515E+03  0.00000000000E+00 0. -1.
          6    1    1    2  502    0  0.21728255780E+03  0.12824264682E+02 -0.46065973001E+03  0.53774302277E+03  0.17200000000E+03 0. -1.
         -6    1    1    2    0  501 -0.21728255780E+03 -0.12824264682E+02  0.21123045651E+03  0.34868105404E+03  0.17200000000E+03 0.  1.
</event>
<event>
 4    1  0.3196149E-002  0.1783413E+03  0.7818608E-02  0.1169418E+00
          2   -1    0    0  502    0  0.00000000000E+00  0.00000000000E+00  0.15737260424E+03  0.15737260424E+03  0.00000000000E+00 0. -1.
         -2   -1    0    0    0  501 -0.00000000000E+00 -0.00000000000E+00 -0.39202200380E+03  0.39202200380E+03  0.00000000000E+00 0.  1.
          6    1    1    2  502    0  0.45515680408E+02  0.12245429773E+02  0.73872831514E+02  0.19303580743E+03  0.17200000000E+03 0. -1.
         -6    1    1    2    0  501 -0.45515680408E+02 -0.12245429773E+02 -0.30852223107E+03  0.35635880062E+03  0.17200000000E+03 0.  1.
</event>
<event>
 4    1  0.3196149E-002  0.2360934E+03  0.7818608E-02  0.1122423E+00
          1   -1    0    0  502    0  0.00000000000E+00  0.00000000000E+00  0.19721327285E+04  0.19721327285E+04  0.00000000000E+00 0. -1.
         -1   -1    0    0    0  501 -0.00000000000E+00 -0.00000000000E+00 -0.59890326740E+03  0.59890326740E+03  0.00000000000E+00 0.  1.
          6    1    1    2  502    0  0.15079947330E+03  0.58443114290E+02  0.19414326183E+04  0.19557353324E+04  0.17200000000E+03 0. -1.
         -6    1    1    2    0  501 -0.15079947330E+03 -0.58443114290E+02 -0.56820315719E+03  0.61530066358E+03  0.17200000000E+03 0.  1.
</event>
<event>
 4    1  0.3196149E-002  0.2026914E+03  0.7818608E-02  0.1147488E+00
          2   -1    0    0  502    0  0.00000000000E+00  0.00000000000E+00  0.23616372814E+02  0.23616372814E+02  0.00000000000E+00 0. -1.
         -2   -1    0    0    0  501 -0.00000000000E+00 -0.00000000000E+00 -0.19459395628E+04  0.19459395628E+04  0.00000000000E+00 0.  1.
          6    1    1    2  502    0  0.76515921902E+02 -0.75133887299E+02 -0.64051126290E+03  0.67181728559E+03  0.17200000000E+03 0.  1.
         -6    1    1    2    0  501 -0.76515921902E+02  0.75133887299E+02 -0.12818119271E+04  0.12977386500E+04  0.17200000000E+03 0.  1.
</event>
<event>
 4    1  0.3196149E-002  0.2351624E+03  0.7818608E-02  0.1123058E+00
          2   -1    0    0  502    0  0.00000000000E+00  0.00000000000E+00  0.63872701988E+03  0.63872701988E+03  0.00000000000E+00 0. -1.
         -2   -1    0    0    0  501 -0.00000000000E+00 -0.00000000000E+00 -0.31494103258E+03  0.31494103258E+03  0.00000000000E+00 0.  1.
          6    1    1    2  502    0 -0.41395137524E+02 -0.15493160514E+03  0.56792760626E+03  0.61468945463E+03  0.17200000000E+03 0. -1.
         -6    1    1    2    0  501  0.41395137524E+02  0.15493160514E+03 -0.24414161896E+03  0.33897859783E+03  0.17200000000E+03 0.  1.
</event>
<event>
 4    1  0.3196149E-002  0.1928526E+03  0.7818608E-02  0.1155913E+00
          2   -1    0    0  502    0  0.00000000000E+00  0.00000000000E+00  0.73208616278E+03  0.73208616278E+03  0.00000000000E+00 0. -1.
         -2   -1    0    0    0  501 -0.00000000000E+00 -0.00000000000E+00 -0.58694868756E+02  0.58694868756E+02  0.00000000000E+00 0.  1.
          6    1    1    2  502    0  0.25860850902E+02 -0.83302744778E+02  0.48167885387E+03  0.51885127846E+03  0.17200000000E+03 0. -1.
         -6    1    1    2    0  501 -0.25860850902E+02  0.83302744778E+02  0.19171244016E+03  0.27192975308E+03  0.17200000000E+03 0.  1.
</event>
<event>
 4    1  0.3196149E-002  0.2113083E+03  0.7818608E-02  0.1140534E+00
         -2   -1    0    0    0  501 -0.00000000000E+00  0.00000000000E+00  0.28727590255E+03  0.28727590255E+03  0.00000000000E+00 0.  1.
          2   -1    0    0  502    0  0.00000000000E+00 -0.00000000000E+00 -0.20039706855E+03  0.20039706855E+03  0.00000000000E+00 0. -1.
          6    1    1    2  502    0 -0.12241508601E+03 -0.90417075824E+01  0.15894467956E+03  0.26441372301E+03  0.17200000000E+03 0. -1.
         -6    1    1    2    0  501  0.12241508601E+03  0.90417075824E+01 -0.72065845555E+02  0.22325924808E+03  0.17200000000E+03 0. -1.
</event>
<event>
 4    1  0.3196149E-002  0.1726756E+03  0.7818608E-02  0.1175086E+00
         -1   -1    0    0    0  501 -0.00000000000E+00  0.00000000000E+00  0.35721387086E+03  0.35721387086E+03  0.00000000000E+00 0.  1.
          1   -1    0    0  502    0  0.00000000000E+00 -0.00000000000E+00 -0.11363522168E+03  0.11363522168E+03  0.00000000000E+00 0. -1.
          6    1    1    2  502    0  0.14581943086E+02 -0.44994072786E+01  0.49408228350E+00  0.17267634999E+03  0.17200000000E+03 0. -1.
         -6    1    1    2    0  501 -0.14581943086E+02  0.44994072786E+01  0.24308456690E+03  0.29817274254E+03  0.17200000000E+03 0.  1.
</event>
<event>
 4    1  0.3196149E-002  0.4508209E+03  0.7818608E-02  0.1027478E+00
         -2   -1    0    0    0  501 -0.00000000000E+00  0.00000000000E+00  0.57341415505E+03  0.57341415505E+03  0.00000000000E+00 0.  1.
          2   -1    0    0  502    0  0.00000000000E+00 -0.00000000000E+00 -0.38999656962E+03  0.38999656962E+03  0.00000000000E+00 0. -1.
          6    1    1    2  502    0 -0.38036070025E+03  0.17023875038E+03  0.23716294513E+03  0.50939744500E+03  0.17200000000E+03 0.  1.
         -6    1    1    2    0  501  0.38036070025E+03 -0.17023875038E+03 -0.53745359703E+02  0.45401327967E+03  0.17200000000E+03 0. -1.
</event>
<event>
 4    1  0.3196149E-002  0.2613793E+03  0.7818608E-02  0.1106317E+00
          1   -1    0    0  502    0  0.00000000000E+00  0.00000000000E+00  0.64073777029E+03  0.64073777029E+03  0.00000000000E+00 0. -1.
         -1   -1    0    0    0  501 -0.00000000000E+00 -0.00000000000E+00 -0.11288724472E+03  0.11288724472E+03  0.00000000000E+00 0.  1.
          6    1    1    2  502    0 -0.17461420466E+03 -0.90802195801E+02  0.35266969784E+03  0.43897047168E+03  0.17200000000E+03 0. -1.
         -6    1    1    2    0  501  0.17461420466E+03  0.90802195801E+02  0.17518082773E+03  0.31465454333E+03  0.17200000000E+03 0.  1.
</event>
<event>
 4    1  0.3196149E-002  0.1999256E+03  0.7818608E-02  0.1149802E+00
          2   -1    0    0  502    0  0.00000000000E+00  0.00000000000E+00  0.42599833052E+03  0.42599833052E+03  0.00000000000E+00 0. -1.
         -2   -1    0    0    0  501 -0.00000000000E+00 -0.00000000000E+00 -0.12608931006E+03  0.12608931006E+03  0.00000000000E+00 0.  1.
          6    1    1    2  502    0  0.92631355402E+02 -0.42493195336E+02  0.10322453365E+02  0.20019188969E+03  0.17200000000E+03 0.  1.
         -6    1    1    2    0  501 -0.92631355402E+02  0.42493195336E+02  0.28958656709E+03  0.35189575089E+03  0.17200000000E+03 0. -1.
</event>
<event>
 4    1  0.3196149E-002  0.2473328E+03  0.7818608E-02  0.1115002E+00
         -2   -1    0    0    0  501 -0.00000000000E+00  0.00000000000E+00  0.27474824276E+03  0.27474824276E+03  0.00000000000E+00 0.  1.
          2   -1    0    0  502    0  0.00000000000E+00 -0.00000000000E+00 -0.22286413513E+03  0.22286413513E+03  0.00000000000E+00 0. -1.
          6    1    1    2  502    0  0.66265955206E+02 -0.16491917984E+03  0.18283433759E+02  0.24800765442E+03  0.17200000000E+03 0. -1.
         -6    1    1    2    0  501 -0.66265955206E+02  0.16491917984E+03  0.33600673870E+02  0.24960472348E+03  0.17200000000E+03 0.  1.
</event>
<event>
 4    1  0.3196149E-002  0.1905445E+03  0.7818608E-02  0.1157971E+00
         -2   -1    0    0    0  501 -0.00000000000E+00  0.00000000000E+00  0.43666201538E+02  0.43666201538E+02  0.00000000000E+00 0.  1.
          2   -1    0    0  502    0  0.00000000000E+00 -0.00000000000E+00 -0.97008032393E+03  0.97008032393E+03  0.00000000000E+00 0. -1.
          6    1    1    2  502    0  0.71707845782E+01  0.81681036362E+02 -0.65480490805E+03  0.68196530664E+03  0.17200000000E+03 0. -1.
         -6    1    1    2    0  501 -0.71707845782E+01 -0.81681036362E+02 -0.27160921435E+03  0.33178121883E+03  0.17200000000E+03 0.  1.
</event>
<event>
 4    1  0.3196149E-002  0.2496951E+03  0.7818608E-02  0.1113498E+00
         -2   -1    0    0    0  501 -0.00000000000E+00  0.00000000000E+00  0.27689880994E+03  0.27689880994E+03  0.00000000000E+00 0.  1.
          2   -1    0    0  502    0  0.00000000000E+00 -0.00000000000E+00 -0.34442913322E+03  0.34442913322E+03  0.00000000000E+00 0. -1.
          6    1    1    2  502    0 -0.15976227675E+03 -0.85086080698E+02 -0.21657426316E+03  0.33053296003E+03  0.17200000000E+03 0.  1.
         -6    1    1    2    0  501  0.15976227675E+03  0.85086080698E+02  0.14904393988E+03  0.29079498314E+03  0.17200000000E+03 0.  1.
</event>
<event>
 4    1  0.3196149E-002  0.1767422E+03  0.7818608E-02  0.1170994E+00
         -2   -1    0    0    0  501 -0.00000000000E+00  0.00000000000E+00  0.16131808191E+03  0.16131808191E+03  0.00000000000E+00 0.  1.
          2   -1    0    0  502    0  0.00000000000E+00 -0.00000000000E+00 -0.24033908528E+03  0.24033908528E+03  0.00000000000E+00 0. -1.
          6    1    1    2  502    0 -0.30700574051E+02  0.26669944312E+02 -0.12803477804E+03  0.21824462322E+03  0.17200000000E+03 0. -1.
         -6    1    1    2    0  501  0.30700574051E+02 -0.26669944312E+02  0.49013774674E+02  0.18341254397E+03  0.17200000000E+03 0.  1.
</event>
<event>
 4    1  0.3196149E-002  0.1907543E+03  0.7818608E-02  0.1157783E+00
          2   -1    0    0  502    0  0.00000000000E+00  0.00000000000E+00  0.98192297307E+03  0.98192297307E+03  0.00000000000E+00 0. -1.
         -2   -1    0    0    0  501 -0.00000000000E+00 -0.00000000000E+00 -0.80428032469E+02  0.80428032469E+02  0.00000000000E+00 0.  1.
          6    1    1    2  502    0  0.82473078378E+02 -0.11855241382E+01  0.84080953376E+03  0.86217625007E+03  0.17200000000E+03 0. -1.
         -6    1    1    2    0  501 -0.82473078378E+02  0.11855241382E+01  0.60685406846E+02  0.20017475547E+03  0.17200000000E+03 0.  1.
</event>
<event>
 4    1  0.3196149E-002  0.3932438E+03  0.7818608E-02  0.1046145E+00
         -2   -1    0    0    0  501 -0.00000000000E+00  0.00000000000E+00  0.67532376722E+03  0.67532376722E+03  0.00000000000E+00 0.  1.
          2   -1    0    0  502    0  0.00000000000E+00 -0.00000000000E+00 -0.36366345586E+03  0.36366345586E+03  0.00000000000E+00 0. -1.
          6    1    1    2  502    0  0.18029728429E+03  0.30421959744E+03 -0.16030695382E+03  0.42466338862E+03  0.17200000000E+03 0. -1.
         -6    1    1    2    0  501 -0.18029728429E+03 -0.30421959744E+03  0.47196726518E+03  0.61432383447E+03  0.17200000000E+03 0.  1.
</event>
<event>
 4    1  0.3196149E-002  0.3229657E+03  0.7818608E-02  0.1074292E+00
         -2   -1    0    0    0  501 -0.00000000000E+00  0.00000000000E+00  0.59738219275E+02  0.59738219275E+02  0.00000000000E+00 0.  1.
          2   -1    0    0  502    0  0.00000000000E+00 -0.00000000000E+00 -0.19359680345E+04  0.19359680345E+04  0.00000000000E+00 0. -1.
          6    1    1    2  502    0  0.10481626899E+03 -0.25246067991E+03 -0.12506385551E+04  0.12916670007E+04  0.17200000000E+03 0. -1.
         -6    1    1    2    0  501 -0.10481626899E+03  0.25246067991E+03 -0.62559126009E+03  0.70403925306E+03  0.17200000000E+03 0.  1.
</event>
<event>
 4    1  0.3196149E-002  0.1854628E+03  0.7818608E-02  0.1162618E+00
          3   -1    0    0  502    0  0.00000000000E+00  0.00000000000E+00  0.25839816537E+03  0.25839816537E+03  0.00000000000E+00 0. -1.
         -3   -1    0    0    0  501 -0.00000000000E+00 -0.00000000000E+00 -0.13314121134E+03  0.13314121134E+03  0.00000000000E+00 0.  1.
          6    1    1    2  502    0  0.51367015998E+02  0.46624929854E+02  0.65419049668E+02  0.19666241755E+03  0.17200000000E+03 0. -1.
         -6    1    1    2    0  501 -0.51367015998E+02 -0.46624929854E+02  0.59837904363E+02  0.19487695917E+03  0.17200000000E+03 0. -1.
</event>
<event>
 4    1  0.3196149E-002  0.2908454E+03  0.7818608E-02  0.1089909E+00
          2   -1    0    0  502    0  0.00000000000E+00  0.00000000000E+00  0.55768246378E+03  0.55768246378E+03  0.00000000000E+00 0. -1.
         -2   -1    0    0    0  501 -0.00000000000E+00 -0.00000000000E+00 -0.20964903460E+03  0.20964903460E+03  0.00000000000E+00 0.  1.
          6    1    1    2  502    0 -0.23077889089E+03 -0.41810932115E+02  0.37575703758E+03  0.47516776176E+03  0.17200000000E+03 0. -1.
         -6    1    1    2    0  501  0.23077889089E+03  0.41810932115E+02 -0.27723608402E+02  0.29216373661E+03  0.17200000000E+03 0.  1.
</event>
<event>
 4    1  0.3196149E-002  0.1822747E+03  0.7818608E-02  0.1165620E+00
          2   -1    0    0  502    0  0.00000000000E+00  0.00000000000E+00  0.65147999615E+03  0.65147999615E+03  0.00000000000E+00 0. -1.
         -2   -1    0    0    0  501 -0.00000000000E+00 -0.00000000000E+00 -0.23726593363E+03  0.23726593363E+03  0.00000000000E+00 0.  1.
          6    1    1    2  502    0 -0.38201113401E+02 -0.46698536050E+02  0.60083762357E+03  0.62787731941E+03  0.17200000000E+03 0. -1.
         -6    1    1    2    0  501  0.38201113401E+02  0.46698536050E+02 -0.18662356106E+03  0.26086861037E+03  0.17200000000E+03 0.  1.
</event>
<event>
 4    1  0.3196149E-002  0.3350612E+03  0.7818608E-02  0.1068919E+00
         -2   -1    0    0    0  501 -0.00000000000E+00  0.00000000000E+00  0.22187539062E+03  0.22187539062E+03  0.00000000000E+00 0.  1.
          2   -1    0    0  502    0  0.00000000000E+00 -0.00000000000E+00 -0.51226916309E+03  0.51226916309E+03  0.00000000000E+00 0. -1.
          6    1    1    2  502    0  0.24314821299E+03 -0.15349574742E+03 -0.18584751408E+03  0.38315179296E+03  0.17200000000E+03 0. -1.
         -6    1    1    2    0  501 -0.24314821299E+03  0.15349574742E+03 -0.10454625839E+03  0.35099276075E+03  0.17200000000E+03 0.  1.
</event>
<event>
 4    1  0.3196149E-002  0.5431396E+03  0.7818608E-02  0.1003094E+00
          2   -1    0    0  502    0  0.00000000000E+00  0.00000000000E+00  0.11270172588E+04  0.11270172588E+04  0.00000000000E+00 0. -1.
         -2   -1    0    0    0  501 -0.00000000000E+00 -0.00000000000E+00 -0.26264977842E+03  0.26264977842E+03  0.00000000000E+00 0.  1.
          6    1    1    2  502    0 -0.50315221360E+03 -0.11070002066E+03  0.47277459605E+03  0.72008087275E+03  0.17200000000E+03 0. -1.
         -6    1    1    2    0  501  0.50315221360E+03  0.11070002066E+03  0.39159288437E+03  0.66958616452E+03  0.17200000000E+03 0.  1.
</event>
<event>
 4    1  0.3196149E-002  0.1726260E+03  0.7818608E-02  0.1175137E+00
          2   -1    0    0  502    0  0.00000000000E+00  0.00000000000E+00  0.67823023683E+03  0.67823023683E+03  0.00000000000E+00 0. -1.
         -2   -1    0    0    0  501 -0.00000000000E+00 -0.00000000000E+00 -0.51149088758E+02  0.51149088758E+02  0.00000000000E+00 0.  1.
          6    1    1    2  502    0  0.17474802599E+01 -0.14583698701E+02  0.45047735544E+03  0.48242054861E+03  0.17200000000E+03 0. -1.
         -6    1    1    2    0  501 -0.17474802599E+01  0.14583698701E+02  0.17660379263E+03  0.24695877698E+03  0.17200000000E+03 0.  1.
</event>
<event>
 4    1  0.3196149E-002  0.1888587E+03  0.7818608E-02  0.1159495E+00
         -1   -1    0    0    0  501 -0.00000000000E+00  0.00000000000E+00  0.48953276158E+02  0.48953276158E+02  0.00000000000E+00 0.  1.
          1   -1    0    0  502    0  0.00000000000E+00 -0.00000000000E+00 -0.24379946077E+04  0.24379946077E+04  0.00000000000E+00 0. -1.
          6    1    1    2  502    0  0.77866202828E+02 -0.45230280985E+01 -0.22357366918E+04  0.22436992129E+04  0.17200000000E+03 0. -1.
         -6    1    1    2    0  501 -0.77866202828E+02  0.45230280985E+01 -0.15330463983E+03  0.24324867095E+03  0.17200000000E+03 0.  1.
</event>
<event>
 4    1  0.3196149E-002  0.4526113E+03  0.7818608E-02  0.1026946E+00
          1   -1    0    0  502    0  0.00000000000E+00  0.00000000000E+00  0.12888271778E+04  0.12888271778E+04  0.00000000000E+00 0. -1.
         -1   -1    0    0    0  501 -0.00000000000E+00 -0.00000000000E+00 -0.17523345577E+03  0.17523345577E+03  0.00000000000E+00 0.  1.
          6    1    1    2  502    0 -0.38429182861E+03 -0.16611085065E+03  0.77995622403E+03  0.90176977974E+03  0.17200000000E+03 0. -1.
         -6    1    1    2    0  501  0.38429182861E+03  0.16611085065E+03  0.33363749800E+03  0.56229085385E+03  0.17200000000E+03 0.  1.
</event>
<event>
 4    1  0.3196149E-002  0.2889801E+03  0.7818608E-02  0.1090883E+00
         -1   -1    0    0    0  501 -0.00000000000E+00  0.00000000000E+00  0.88419648431E+03  0.88419648431E+03  0.00000000000E+00 0.  1.
          1   -1    0    0  502    0  0.00000000000E+00 -0.00000000000E+00 -0.10057710292E+03  0.10057710292E+03  0.00000000000E+00 0. -1.
          6    1    1    2  502    0 -0.37546233099E+02 -0.22916323405E+03  0.27024746408E+03  0.39565540474E+03  0.17200000000E+03 0.  1.
         -6    1    1    2    0  501  0.37546233099E+02  0.22916323405E+03  0.51337191731E+03  0.58911818249E+03  0.17200000000E+03 0.  1.
</event>
<event>
 4    1  0.3196149E-002  0.1774924E+03  0.7818608E-02  0.1170252E+00
          2   -1    0    0  502    0  0.00000000000E+00  0.00000000000E+00  0.66143143030E+02  0.66143143030E+02  0.00000000000E+00 0. -1.
         -2   -1    0    0    0  501 -0.00000000000E+00 -0.00000000000E+00 -0.48888060416E+03  0.48888060416E+03  0.00000000000E+00 0.  1.
          6    1    1    2  502    0  0.43166436101E+02  0.74973626852E+01 -0.25589767616E+03  0.31142763576E+03  0.17200000000E+03 0.  1.
         -6    1    1    2    0  501 -0.43166436101E+02 -0.74973626852E+01 -0.16683978497E+03  0.24359611142E+03  0.17200000000E+03 0.  1.
</event>
<event>
 4    1  0.3196149E-002  0.2937598E+03  0.7818608E-02  0.1088402E+00
          2   -1    0    0  502    0  0.00000000000E+00  0.00000000000E+00  0.25679029540E+03  0.25679029540E+03  0.00000000000E+00 0. -1.
         -2   -1    0    0    0  501 -0.00000000000E+00 -0.00000000000E+00 -0.36093453284E+03  0.36093453284E+03  0.00000000000E+00 0.  1.
          6    1    1    2  502    0 -0.21922684929E+03 -0.93007666104E+02  0.29023987805E+02  0.29519015782E+03  0.17200000000E+03 0. -1.
         -6    1    1    2    0  501  0.21922684929E+03  0.93007666104E+02 -0.13316822524E+03  0.32253467041E+03  0.17200000000E+03 0.  1.
</event>
<event>
 4    1  0.3196149E-002  0.2738093E+03  0.7818608E-02  0.1099119E+00
          2   -1    0    0  502    0  0.00000000000E+00  0.00000000000E+00  0.18665882203E+03  0.18665882203E+03  0.00000000000E+00 0. -1.
         -2   -1    0    0    0  501 -0.00000000000E+00 -0.00000000000E+00 -0.15636584904E+04  0.15636584904E+04  0.00000000000E+00 0.  1.
          6    1    1    2  502    0 -0.18011564313E+03  0.11377996232E+03  0.65932825433E+02  0.28163569056E+03  0.17200000000E+03 0. -1.
         -6    1    1    2    0  501  0.18011564313E+03 -0.11377996232E+03 -0.14429324938E+04  0.14686816219E+04  0.17200000000E+03 0.  1.
</event>
<event>
 4    1  0.3196149E-002  0.3633043E+03  0.7818608E-02  0.1057283E+00
         -2   -1    0    0    0  501 -0.00000000000E+00  0.00000000000E+00  0.18259955887E+03  0.18259955887E+03  0.00000000000E+00 0.  1.
          2   -1    0    0  502    0  0.00000000000E+00 -0.00000000000E+00 -0.16676683606E+04  0.16676683606E+04  0.00000000000E+00 0. -1.
          6    1    1    2  502    0 -0.29594253229E+03  0.12175403929E+03 -0.14388827285E+04  0.14840396001E+04  0.17200000000E+03 0. -1.
         -6    1    1    2    0  501  0.29594253229E+03 -0.12175403929E+03 -0.46186073238E+02  0.36622831931E+03  0.17200000000E+03 0.  1.
</event>
<event>
 4    1  0.3196149E-002  0.1872499E+03  0.7818608E-02  0.1160965E+00
         -2   -1    0    0    0  501 -0.00000000000E+00  0.00000000000E+00  0.10604901913E+03  0.10604901913E+03  0.00000000000E+00 0.  1.
          2   -1    0    0  502    0  0.00000000000E+00 -0.00000000000E+00 -0.33712290853E+03  0.33712290853E+03  0.00000000000E+00 0. -1.
          6    1    1    2  502    0 -0.71727839690E+02 -0.18266221379E+02 -0.14629858029E+03  0.23762536149E+03  0.17200000000E+03 0.  1.
         -6    1    1    2    0  501  0.71727839690E+02  0.18266221379E+02 -0.84775309107E+02  0.20554656617E+03  0.17200000000E+03 0.  1.
</event>
<event>
 4    1  0.3196149E-002  0.2116054E+03  0.7818608E-02  0.1140301E+00
         -1   -1    0    0    0  501 -0.00000000000E+00  0.00000000000E+00  0.71848185323E+03  0.71848185323E+03  0.00000000000E+00 0.  1.
          1   -1    0    0  502    0  0.00000000000E+00 -0.00000000000E+00 -0.32098110662E+03  0.32098110662E+03  0.00000000000E+00 0. -1.
          6    1    1    2  502    0  0.72649818178E+02  0.99573350976E+02 -0.26780545132E+03  0.34131599444E+03  0.17200000000E+03 0. -1.
         -6    1    1    2    0  501 -0.72649818178E+02 -0.99573350976E+02  0.66530619793E+03  0.69814696541E+03  0.17200000000E+03 0.  1.
</event>
<event>
 4    1  0.3196149E-002  0.2801081E+03  0.7818608E-02  0.1095630E+00
         -1   -1    0    0    0  501 -0.00000000000E+00  0.00000000000E+00  0.10638375475E+03  0.10638375475E+03  0.00000000000E+00 0.  1.
          1   -1    0    0  502    0  0.00000000000E+00 -0.00000000000E+00 -0.99361523130E+03  0.99361523130E+03  0.00000000000E+00 0. -1.
          6    1    1    2  502    0  0.17191234421E+03  0.13900610866E+03 -0.72283841275E+03  0.77521346950E+03  0.17200000000E+03 0. -1.
         -6    1    1    2    0  501 -0.17191234421E+03 -0.13900610866E+03 -0.16439306379E+03  0.32478551655E+03  0.17200000000E+03 0.  1.
</event>
<event>
 4    1  0.3196149E-002  0.1756347E+03  0.7818608E-02  0.1172096E+00
         -2   -1    0    0    0  501 -0.00000000000E+00  0.00000000000E+00  0.97619713233E+02  0.97619713233E+02  0.00000000000E+00 0.  1.
          2   -1    0    0  502    0  0.00000000000E+00 -0.00000000000E+00 -0.36885949128E+03  0.36885949128E+03  0.00000000000E+00 0. -1.
          6    1    1    2  502    0  0.33925920599E+02 -0.10609814981E+02 -0.47322952715E+02  0.18189831807E+03  0.17200000000E+03 0.  1.
         -6    1    1    2    0  501 -0.33925920599E+02  0.10609814981E+02 -0.22391682533E+03  0.28458088644E+03  0.17200000000E+03 0. -1.
</event>
<event>
 4    1  0.3196149E-002  0.1844506E+03  0.7818608E-02  0.1163564E+00
         -1   -1    0    0    0  501 -0.00000000000E+00  0.00000000000E+00  0.14994504928E+03  0.14994504928E+03  0.00000000000E+00 0.  1.
          1   -1    0    0  502    0  0.00000000000E+00 -0.00000000000E+00 -0.38847257303E+03  0.38847257303E+03  0.00000000000E+00 0. -1.
          6    1    1    2  502    0  0.13196747809E+02 -0.65298283301E+02 -0.29288286013E+03  0.34612481811E+03  0.17200000000E+03 0. -1.
         -6    1    1    2    0  501 -0.13196747809E+02  0.65298283301E+02  0.54355336369E+02  0.19229280420E+03  0.17200000000E+03 0.  1.
</event>
<event>
 4    1  0.3196149E-002  0.2578325E+03  0.7818608E-02  0.1108453E+00
          1   -1    0    0  502    0  0.00000000000E+00  0.00000000000E+00  0.49661483312E+03  0.49661483312E+03  0.00000000000E+00 0. -1.
         -1   -1    0    0    0  501 -0.00000000000E+00 -0.00000000000E+00 -0.15043592414E+03  0.15043592414E+03  0.00000000000E+00 0.  1.
          6    1    1    2  502    0 -0.18705892509E+03 -0.43618292384E+02  0.28047653915E+03  0.38097858982E+03  0.17200000000E+03 0.  1.
         -6    1    1    2    0  501  0.18705892509E+03  0.43618292384E+02  0.65702369822E+02  0.26607216744E+03  0.17200000000E+03 0.  1.
</event>
<event>
 4    1  0.3196149E-002  0.4424294E+03  0.7818608E-02  0.1030004E+00
         -2   -1    0    0    0  501 -0.00000000000E+00  0.00000000000E+00  0.39064796464E+03  0.39064796464E+03  0.00000000000E+00 0.  1.
          2   -1    0    0  502    0  0.00000000000E+00 -0.00000000000E+00 -0.65032711020E+03  0.65032711020E+03  0.00000000000E+00 0. -1.
          6    1    1    2  502    0 -0.57442338718E+02 -0.40355939158E+03 -0.37918712427E+03  0.58268917959E+03  0.17200000000E+03 0. -1.
         -6    1    1    2    0  501  0.57442338718E+02  0.40355939158E+03  0.11950797871E+03  0.45828589525E+03  0.17200000000E+03 0.  1.
</event>
<event>
 4    1  0.3196149E-002  0.2149657E+03  0.7818608E-02  0.1137693E+00
         -1   -1    0    0    0  501 -0.00000000000E+00  0.00000000000E+00  0.10609458419E+04  0.10609458419E+04  0.00000000000E+00 0.  1.
          1   -1    0    0  502    0  0.00000000000E+00 -0.00000000000E+00 -0.10776336774E+03  0.10776336774E+03  0.00000000000E+00 0. -1.
          6    1    1    2  502    0  0.29271422244E+02  0.12557642467E+03  0.25531263327E+02  0.21647655762E+03  0.17200000000E+03 0. -1.
         -6    1    1    2    0  501 -0.29271422244E+02 -0.12557642467E+03  0.92765121080E+03  0.95223265198E+03  0.17200000000E+03 0.  1.
</event>
<event>
 4    1  0.3196149E-002  0.1888244E+03  0.7818608E-02  0.1159526E+00
         -2   -1    0    0    0  501 -0.00000000000E+00  0.00000000000E+00  0.53499574612E+03  0.53499574612E+03  0.00000000000E+00 0.  1.
          2   -1    0    0  502    0  0.00000000000E+00 -0.00000000000E+00 -0.11365920466E+03  0.11365920466E+03  0.00000000000E+00 0. -1.
          6    1    1    2  502    0 -0.63589094356E+02  0.45022992405E+02  0.20764543076E+01  0.18883578694E+03  0.17200000000E+03 0. -1.
         -6    1    1    2    0  501  0.63589094356E+02 -0.45022992405E+02  0.41926008715E+03  0.45981916385E+03  0.17200000000E+03 0.  1.
</event>
<event>
 4    1  0.3196149E-002  0.2595948E+03  0.7818608E-02  0.1107387E+00
         -2   -1    0    0    0  501 -0.00000000000E+00  0.00000000000E+00  0.22707995149E+03  0.22707995149E+03  0.00000000000E+00 0.  1.
          2   -1    0    0  502    0  0.00000000000E+00 -0.00000000000E+00 -0.10493420719E+04  0.10493420719E+04  0.00000000000E+00 0. -1.
          6    1    1    2  502    0  0.18797650957E+03 -0.49701930255E+02 -0.95161296096E+03  0.98638566367E+03  0.17200000000E+03 0. -1.
         -6    1    1    2    0  501 -0.18797650957E+03  0.49701930255E+02  0.12935084054E+03  0.29003635974E+03  0.17200000000E+03 0.  1.
</event>
<event>
 4    1  0.3196149E-002  0.1921299E+03  0.7818608E-02  0.1156554E+00
         -1   -1    0    0    0  501 -0.00000000000E+00  0.00000000000E+00  0.12476846282E+03  0.12476846282E+03  0.00000000000E+00 0.  1.
          1   -1    0    0  502    0  0.00000000000E+00 -0.00000000000E+00 -0.41477148875E+03  0.41477148875E+03  0.00000000000E+00 0. -1.
          6    1    1    2  502    0 -0.78943382623E+02  0.33133675780E+02 -0.55650855025E+00  0.19213070507E+03  0.17200000000E+03 0.  1.
         -6    1    1    2    0  501  0.78943382623E+02 -0.33133675780E+02 -0.28944651738E+03  0.34740924650E+03  0.17200000000E+03 0. -1.
</event>
<event>
 4    1  0.3196149E-002  0.2975147E+03  0.7818608E-02  0.1086490E+00
         -2   -1    0    0    0  501 -0.00000000000E+00  0.00000000000E+00  0.17683667579E+03  0.17683667579E+03  0.00000000000E+00 0.  1.
          2   -1    0    0  502    0  0.00000000000E+00 -0.00000000000E+00 -0.66053485489E+03  0.66053485489E+03  0.00000000000E+00 0. -1.
          6    1    1    2  502    0 -0.15903250074E+03 -0.18341111172E+03 -0.44790475784E+03  0.53771148796E+03  0.17200000000E+03 0. -1.
         -6    1    1    2    0  501  0.15903250074E+03  0.18341111172E+03 -0.35793421270E+02  0.29966004272E+03  0.17200000000E+03 0.  1.
</event>
<event>
 4    1  0.3196149E-002  0.1996899E+03  0.7818608E-02  0.1150001E+00
         -2   -1    0    0    0  501 -0.00000000000E+00  0.00000000000E+00  0.28509221972E+03  0.28509221972E+03  0.00000000000E+00 0.  1.
          2   -1    0    0  502    0  0.00000000000E+00 -0.00000000000E+00 -0.30229762235E+03  0.30229762235E+03  0.00000000000E+00 0. -1.
          6    1    1    2  502    0 -0.81286447453E+02 -0.60700763512E+02 -0.22388483060E+03  0.30000081100E+03  0.17200000000E+03 0. -1.
         -6    1    1    2    0  501  0.81286447453E+02  0.60700763512E+02  0.20667942797E+03  0.28738903107E+03  0.17200000000E+03 0.  1.
</event>
<event>
 4    1  0.3196149E-002  0.2491480E+03  0.7818608E-02  0.1113844E+00
         -1   -1    0    0    0  501 -0.00000000000E+00  0.00000000000E+00  0.37609383140E+03  0.37609383140E+03  0.00000000000E+00 0.  1.
          1   -1    0    0  502    0  0.00000000000E+00 -0.00000000000E+00 -0.17697302443E+03  0.17697302443E+03  0.00000000000E+00 0. -1.
          6    1    1    2  502    0 -0.13117700559E+03 -0.12362581862E+03  0.27786775735E+02  0.25069274966E+03  0.17200000000E+03 0. -1.
         -6    1    1    2    0  501  0.13117700559E+03  0.12362581862E+03  0.17133403123E+03  0.30237410617E+03  0.17200000000E+03 0.  1.
</event>
<event>
 4    1  0.3196149E-002  0.1882881E+03  0.7818608E-02  0.1160014E+00
          2   -1    0    0  502    0  0.00000000000E+00  0.00000000000E+00  0.14578420013E+04  0.14578420013E+04  0.00000000000E+00 0. -1.
         -2   -1    0    0    0  501 -0.00000000000E+00 -0.00000000000E+00 -0.36210742389E+02  0.36210742389E+02  0.00000000000E+00 0.  1.
          6    1    1    2  502    0  0.28383695454E+02  0.71153232052E+02  0.11389208509E+04  0.11543799726E+04  0.17200000000E+03 0. -1.
         -6    1    1    2    0  501 -0.28383695454E+02 -0.71153232052E+02  0.28271040801E+03  0.33967277105E+03  0.17200000000E+03 0.  1.
</event>
<event>
 4    1  0.3196149E-002  0.3059964E+03  0.7818608E-02  0.1082281E+00
         -2   -1    0    0    0  501 -0.00000000000E+00  0.00000000000E+00  0.29608249667E+03  0.29608249667E+03  0.00000000000E+00 0.  1.
          2   -1    0    0  502    0  0.00000000000E+00 -0.00000000000E+00 -0.37262947290E+03  0.37262947290E+03  0.00000000000E+00 0. -1.
          6    1    1    2  502    0 -0.52845843449E+02 -0.24750178954E+03  0.91791540282E+02  0.31946753491E+03  0.17200000000E+03 0.  1.
         -6    1    1    2    0  501  0.52845843449E+02  0.24750178954E+03 -0.16833851651E+03  0.34924443466E+03  0.17200000000E+03 0.  1.
</event>
<event>
 4    1  0.3196149E-002  0.4318102E+03  0.7818608E-02  0.1033290E+00
         -1   -1    0    0    0  501 -0.00000000000E+00  0.00000000000E+00  0.20992708833E+03  0.20992708833E+03  0.00000000000E+00 0.  1.
          1   -1    0    0  502    0  0.00000000000E+00 -0.00000000000E+00 -0.10337938567E+04  0.10337938567E+04  0.00000000000E+00 0. -1.
          6    1    1    2  502    0  0.41540040273E+02  0.39389140039E+03 -0.64529413884E+03  0.77644351750E+03  0.17200000000E+03 0. -1.
         -6    1    1    2    0  501 -0.41540040273E+02 -0.39389140039E+03 -0.17857262952E+03  0.46727742751E+03  0.17200000000E+03 0.  1.
</event>
<event>
 4    1  0.3196149E-002  0.1824003E+03  0.7818608E-02  0.1165500E+00
          2   -1    0    0  502    0  0.00000000000E+00  0.00000000000E+00  0.57348889068E+02  0.57348889068E+02  0.00000000000E+00 0. -1.
         -2   -1    0    0    0  501 -0.00000000000E+00 -0.00000000000E+00 -0.66125737437E+03  0.66125737437E+03  0.00000000000E+00 0.  1.
          6    1    1    2  502    0  0.43767683725E+02 -0.42074652955E+02 -0.17610345940E+03  0.25353957280E+03  0.17200000000E+03 0. -1.
         -6    1    1    2    0  501 -0.43767683725E+02  0.42074652955E+02 -0.42780502590E+03  0.46506669064E+03  0.17200000000E+03 0.  1.
</event>
<event>
 4    1  0.3196149E-002  0.1787123E+03  0.7818608E-02  0.1169055E+00
         -1   -1    0    0    0  501 -0.00000000000E+00  0.00000000000E+00  0.11701330913E+03  0.11701330913E+03  0.00000000000E+00 0.  1.
          1   -1    0    0  502    0  0.00000000000E+00 -0.00000000000E+00 -0.73055557416E+03  0.73055557416E+03  0.00000000000E+00 0. -1.
          6    1    1    2  502    0  0.44952600890E+02  0.18258048005E+02 -0.64217404583E+03  0.66657752571E+03  0.17200000000E+03 0. -1.
         -6    1    1    2    0  501 -0.44952600890E+02 -0.18258048005E+02  0.28631780806E+02  0.18099135757E+03  0.17200000000E+03 0.  1.
</event>
<event>
 4    1  0.3196149E-002  0.6700249E+03  0.7818608E-02  0.9769913E-01
         -2   -1    0    0    0  501 -0.00000000000E+00  0.00000000000E+00  0.21683585403E+03  0.21683585403E+03  0.00000000000E+00 0.  1.
          2   -1    0    0  502    0  0.00000000000E+00 -0.00000000000E+00 -0.36075475030E+04  0.36075475030E+04  0.00000000000E+00 0. -1.
          6    1    1    2  502    0  0.48071309429E+03 -0.43389426668E+03 -0.29435597299E+04  0.30188536230E+04  0.17200000000E+03 0. -1.
         -6    1    1    2    0  501 -0.48071309429E+03  0.43389426668E+03 -0.44715191909E+03  0.80552973404E+03  0.17200000000E+03 0.  1.
</event>
<event>
 4    1  0.3196149E-002  0.3119472E+03  0.7818608E-02  0.1079416E+00
         -1   -1    0    0    0  501 -0.00000000000E+00  0.00000000000E+00  0.45716318814E+02  0.45716318814E+02  0.00000000000E+00 0.  1.
          1   -1    0    0  502    0  0.00000000000E+00 -0.00000000000E+00 -0.21349337773E+04  0.21349337773E+04  0.00000000000E+00 0. -1.
          6    1    1    2  502    0 -0.22619261973E+03 -0.12870095991E+03 -0.11040698250E+04  0.11472929952E+04  0.17200000000E+03 0. -1.
         -6    1    1    2    0  501  0.22619261973E+03  0.12870095991E+03 -0.98514763352E+03  0.10333571010E+04  0.17200000000E+03 0.  1.
</event>
<event>
 4    1  0.3196149E-002  0.2742068E+03  0.7818608E-02  0.1098896E+00
         -2   -1    0    0    0  501 -0.00000000000E+00  0.00000000000E+00  0.46562325965E+02  0.46562325965E+02  0.00000000000E+00 0.  1.
          2   -1    0    0  502    0  0.00000000000E+00 -0.00000000000E+00 -0.17794628048E+04  0.17794628048E+04  0.00000000000E+00 0. -1.
          6    1    1    2  502    0 -0.66659328513E+02  0.20288392513E+03 -0.11441756580E+04  0.11765743876E+04  0.17200000000E+03 0. -1.
         -6    1    1    2    0  501  0.66659328513E+02 -0.20288392513E+03 -0.58872482084E+03  0.64945074319E+03  0.17200000000E+03 0.  1.
</event>
<event>
 4    1  0.3196149E-002  0.3940045E+03  0.7818608E-02  0.1045876E+00
          2   -1    0    0  502    0  0.00000000000E+00  0.00000000000E+00  0.45983687064E+03  0.45983687064E+03  0.00000000000E+00 0. -1.
         -2   -1    0    0    0  501 -0.00000000000E+00 -0.00000000000E+00 -0.52317619830E+03  0.52317619830E+03  0.00000000000E+00 0.  1.
          6    1    1    2  502    0  0.27076082131E+03 -0.22878830096E+03  0.26106223752E+03  0.47264468776E+03  0.17200000000E+03 0. -1.
         -6    1    1    2    0  501 -0.27076082131E+03  0.22878830096E+03 -0.32440156518E+03  0.51036838118E+03  0.17200000000E+03 0.  1.
</event>
<event>
 4    1  0.3196149E-002  0.2045130E+03  0.7818608E-02  0.1145986E+00
         -2   -1    0    0    0  501 -0.00000000000E+00  0.00000000000E+00  0.16384956530E+03  0.16384956530E+03  0.00000000000E+00 0.  1.
          2   -1    0    0  502    0  0.00000000000E+00 -0.00000000000E+00 -0.28533383743E+03  0.28533383743E+03  0.00000000000E+00 0. -1.
          6    1    1    2  502    0  0.10441981343E+03  0.36579724348E+02  0.12162091421E+02  0.20487432767E+03  0.17200000000E+03 0. -1.
         -6    1    1    2    0  501 -0.10441981343E+03 -0.36579724348E+02 -0.13364636355E+03  0.24430907506E+03  0.17200000000E+03 0. -1.
</event>
<event>
 4    1  0.3196149E-002  0.2588281E+03  0.7818608E-02  0.1107849E+00
          2   -1    0    0  502    0  0.00000000000E+00  0.00000000000E+00  0.30619876195E+04  0.30619876195E+04  0.00000000000E+00 0. -1.
         -2   -1    0    0    0  501 -0.00000000000E+00 -0.00000000000E+00 -0.28651926241E+02  0.28651926241E+02  0.00000000000E+00 0.  1.
          6    1    1    2  502    0 -0.14424751019E+03 -0.12884339308E+03  0.22680188078E+04  0.22827398618E+04  0.17200000000E+03 0. -1.
         -6    1    1    2    0  501  0.14424751019E+03  0.12884339308E+03  0.76531688548E+03  0.80789968396E+03  0.17200000000E+03 0.  1.
</event>
<event>
 4    1  0.3196149E-002  0.1920931E+03  0.7818608E-02  0.1156587E+00
         -2   -1    0    0    0  501 -0.00000000000E+00  0.00000000000E+00  0.51700624631E+02  0.51700624631E+02  0.00000000000E+00 0.  1.
          2   -1    0    0  502    0  0.00000000000E+00 -0.00000000000E+00 -0.82851532997E+03  0.82851532997E+03  0.00000000000E+00 0. -1.
          6    1    1    2  502    0  0.73918093160E+02  0.43033327807E+02 -0.22458553673E+03  0.29553073463E+03  0.17200000000E+03 0. -1.
         -6    1    1    2    0  501 -0.73918093160E+02 -0.43033327807E+02 -0.55222916861E+03  0.58468521998E+03  0.17200000000E+03 0.  1.
</event>
<event>
 4    1  0.3196149E-002  0.2015785E+03  0.7818608E-02  0.1148414E+00
          1   -1    0    0  502    0  0.00000000000E+00  0.00000000000E+00  0.10339066679E+04  0.10339066679E+04  0.00000000000E+00 0. -1.
         -1   -1    0    0    0  501 -0.00000000000E+00 -0.00000000000E+00 -0.55126119048E+02  0.55126119048E+02  0.00000000000E+00 0.  1.
          6    1    1    2  502    0 -0.42753974990E+02 -0.96031112878E+02  0.78113406048E+03  0.80672442474E+03  0.17200000000E+03 0. -1.
         -6    1    1    2    0  501  0.42753974990E+02  0.96031112878E+02  0.19764648842E+03  0.28230836226E+03  0.17200000000E+03 0.  1.
</event>
<event>
 4    1  0.3196149E-002  0.1742917E+03  0.7818608E-02  0.1173445E+00
          2   -1    0    0  502    0  0.00000000000E+00  0.00000000000E+00  0.47444050320E+03  0.47444050320E+03  0.00000000000E+00 0. -1.
         -2   -1    0    0    0  501 -0.00000000000E+00 -0.00000000000E+00 -0.84223885445E+02  0.84223885445E+02  0.00000000000E+00 0.  1.
          6    1    1    2  502    0 -0.39679104412E+01  0.27889945283E+02  0.33189131954E+03  0.37487256681E+03  0.17200000000E+03 0. -1.
         -6    1    1    2    0  501  0.39679104412E+01 -0.27889945283E+02  0.58325298216E+02  0.18379182183E+03  0.17200000000E+03 0.  1.
</event>
<event>
 4    1  0.3196149E-002  0.2306549E+03  0.7818608E-02  0.1126180E+00
          2   -1    0    0  502    0  0.00000000000E+00  0.00000000000E+00  0.60002705617E+03  0.60002705617E+03  0.00000000000E+00 0. -1.
         -2   -1    0    0    0  501 -0.00000000000E+00 -0.00000000000E+00 -0.61875147058E+03  0.61875147058E+03  0.00000000000E+00 0.  1.
          6    1    1    2  502    0 -0.12841970312E+03  0.84415918378E+02 -0.57340214085E+03  0.61805475692E+03  0.17200000000E+03 0.  1.
         -6    1    1    2    0  501  0.12841970312E+03 -0.84415918378E+02  0.55467772644E+03  0.60072376983E+03  0.17200000000E+03 0. -1.
</event>
<event>
 4    1  0.3196149E-002  0.2238280E+03  0.7818608E-02  0.1131061E+00
         -2   -1    0    0    0  501 -0.00000000000E+00  0.00000000000E+00  0.47296689439E+03  0.47296689439E+03  0.00000000000E+00 0.  1.
          2   -1    0    0  502    0  0.00000000000E+00 -0.00000000000E+00 -0.16165737535E+03  0.16165737535E+03  0.00000000000E+00 0. -1.
          6    1    1    2  502    0  0.12254060740E+03 -0.74153588155E+02 -0.30658265235E+02  0.22591787075E+03  0.17200000000E+03 0. -1.
         -6    1    1    2    0  501 -0.12254060740E+03  0.74153588155E+02  0.34196778427E+03  0.40870639899E+03  0.17200000000E+03 0.  1.
</event>
<event>
 4    1  0.3196149E-002  0.2809901E+03  0.7818608E-02  0.1095149E+00
          1   -1    0    0  502    0  0.00000000000E+00  0.00000000000E+00  0.10387247586E+04  0.10387247586E+04  0.00000000000E+00 0. -1.
         -1   -1    0    0    0  501 -0.00000000000E+00 -0.00000000000E+00 -0.13640096479E+03  0.13640096479E+03  0.00000000000E+00 0.  1.
          6    1    1    2  502    0 -0.22092741609E+03  0.23717797399E+02  0.84211504786E+03  0.88775740545E+03  0.17200000000E+03 0. -1.
         -6    1    1    2    0  501  0.22092741609E+03 -0.23717797399E+02  0.60208745992E+02  0.28736831799E+03  0.17200000000E+03 0.  1.
</event>
<event>
 4    1  0.3196149E-002  0.1846445E+03  0.7818608E-02  0.1163382E+00
         -2   -1    0    0    0  501 -0.00000000000E+00  0.00000000000E+00  0.24282787655E+03  0.24282787655E+03  0.00000000000E+00 0.  1.
          2   -1    0    0  502    0  0.00000000000E+00 -0.00000000000E+00 -0.25236272401E+03  0.25236272401E+03  0.00000000000E+00 0. -1.
          6    1    1    2  502    0  0.36053623177E+02 -0.56654546470E+02  0.16014827111E+03  0.24441986441E+03  0.17200000000E+03 0.  1.
         -6    1    1    2    0  501 -0.36053623177E+02  0.56654546470E+02 -0.16968311857E+03  0.25077073615E+03  0.17200000000E+03 0. -1.
</event>
<event>
 4    1  0.3196149E-002  0.3520904E+03  0.7818608E-02  0.1061760E+00
          1   -1    0    0  502    0  0.00000000000E+00  0.00000000000E+00  0.24009688246E+03  0.24009688246E+03  0.00000000000E+00 0. -1.
         -1   -1    0    0    0  501 -0.00000000000E+00 -0.00000000000E+00 -0.54464492904E+03  0.54464492904E+03  0.00000000000E+00 0.  1.
          6    1    1    2  502    0  0.30685435988E+03 -0.14968130848E+02 -0.62799731113E+02  0.35764710169E+03  0.17200000000E+03 0. -1.
         -6    1    1    2    0  501 -0.30685435988E+03  0.14968130848E+02 -0.24174831548E+03  0.42709470981E+03  0.17200000000E+03 0.  1.
</event>
<event>
 4    1  0.3196149E-002  0.2126875E+03  0.7818608E-02  0.1139455E+00
         -1   -1    0    0    0  501 -0.00000000000E+00  0.00000000000E+00  0.13322068530E+03  0.13322068530E+03  0.00000000000E+00 0.  1.
          1   -1    0    0  502    0  0.00000000000E+00 -0.00000000000E+00 -0.51168122701E+03  0.51168122701E+03  0.00000000000E+00 0. -1.
          6    1    1    2  502    0  0.31711092380E+02  0.12102231384E+03 -0.37624901701E+03  0.43220286513E+03  0.17200000000E+03 0. -1.
         -6    1    1    2    0  501 -0.31711092380E+02 -0.12102231384E+03 -0.22115246901E+01  0.21269904718E+03  0.17200000000E+03 0.  1.
</event>
<event>
 4    1  0.3196149E-002  0.2398198E+03  0.7818608E-02  0.1119913E+00
          1   -1    0    0  502    0  0.00000000000E+00  0.00000000000E+00  0.56033021919E+03  0.56033021919E+03  0.00000000000E+00 0. -1.
         -1   -1    0    0    0  501 -0.00000000000E+00 -0.00000000000E+00 -0.10264268514E+03  0.10264268514E+03  0.00000000000E+00 0.  1.
          6    1    1    2  502    0  0.16007460217E+03 -0.48017517747E+02  0.22951808056E+03  0.33195196877E+03  0.17200000000E+03 0. -1.
         -6    1    1    2    0  501 -0.16007460217E+03  0.48017517747E+02  0.22816945350E+03  0.33102093556E+03  0.17200000000E+03 0.  1.
</event>
<event>
 4    1  0.3196149E-002  0.1890579E+03  0.7818608E-02  0.1159314E+00
         -2   -1    0    0    0  501 -0.00000000000E+00  0.00000000000E+00  0.31777172725E+02  0.31777172725E+02  0.00000000000E+00 0.  1.
          2   -1    0    0  502    0  0.00000000000E+00 -0.00000000000E+00 -0.15155164321E+04  0.15155164321E+04  0.00000000000E+00 0. -1.
          6    1    1    2  502    0  0.51751475571E+02 -0.58997245385E+02 -0.34904877416E+03  0.39696087582E+03  0.17200000000E+03 0.  1.
         -6    1    1    2    0  501 -0.51751475571E+02  0.58997245385E+02 -0.11346904852E+04  0.11503327290E+04  0.17200000000E+03 0.  1.
</event>
<event>
 4    1  0.3196149E-002  0.2730977E+03  0.7818608E-02  0.1099520E+00
         -2   -1    0    0    0  501 -0.00000000000E+00  0.00000000000E+00  0.21109617973E+03  0.21109617973E+03  0.00000000000E+00 0.  1.
          2   -1    0    0  502    0  0.00000000000E+00 -0.00000000000E+00 -0.37877386463E+03  0.37877386463E+03  0.00000000000E+00 0. -1.
          6    1    1    2  502    0 -0.46122842881E+02 -0.20705317262E+03 -0.73671224422E+01  0.27319701210E+03  0.17200000000E+03 0.  1.
         -6    1    1    2    0  501  0.46122842881E+02  0.20705317262E+03 -0.16031056245E+03  0.31667303226E+03  0.17200000000E+03 0.  1.
</event>
<event>
 4    1  0.3196149E-002  0.3285935E+03  0.7818608E-02  0.1071761E+00
          1   -1    0    0  502    0  0.00000000000E+00  0.00000000000E+00  0.50420402902E+03  0.50420402902E+03  0.00000000000E+00 0. -1.
         -1   -1    0    0    0  501 -0.00000000000E+00 -0.00000000000E+00 -0.25079865405E+03  0.25079865405E+03  0.00000000000E+00 0.  1.
          6    1    1    2  502    0 -0.27030483370E+03 -0.72972553752E+02  0.27101509397E+03  0.42593764554E+03  0.17200000000E+03 0. -1.
         -6    1    1    2    0  501  0.27030483370E+03  0.72972553752E+02 -0.17609718998E+02  0.32906503753E+03  0.17200000000E+03 0.  1.
</event>
<event>
 4    1  0.3196149E-002  0.6240140E+03  0.7818608E-02  0.9856800E-01
         -2   -1    0    0    0  501 -0.00000000000E+00  0.00000000000E+00  0.18332888205E+03  0.18332888205E+03  0.00000000000E+00 0.  1.
          2   -1    0    0  502    0  0.00000000000E+00 -0.00000000000E+00 -0.29100581268E+04  0.29100581268E+04  0.00000000000E+00 0. -1.
          6    1    1    2  502    0 -0.32489640175E+03 -0.50423390835E+03 -0.21672169975E+04  0.22552656208E+04  0.17200000000E+03 0. -1.
         -6    1    1    2    0  501  0.32489640175E+03  0.50423390835E+03 -0.55951224718E+03  0.83812138795E+03  0.17200000000E+03 0.  1.
</event>
<event>
 4    1  0.3196149E-002  0.2607279E+03  0.7818608E-02  0.1106707E+00
          2   -1    0    0  502    0  0.00000000000E+00  0.00000000000E+00  0.16898034700E+04  0.16898034700E+04  0.00000000000E+00 0. -1.
         -2   -1    0    0    0  501 -0.00000000000E+00 -0.00000000000E+00 -0.62563344746E+02  0.62563344746E+02  0.00000000000E+00 0.  1.
          6    1    1    2  502    0  0.10847991623E+03  0.16317822952E+03  0.29011354164E+03  0.39005755198E+03  0.17200000000E+03 0.  1.
         -6    1    1    2    0  501 -0.10847991623E+03 -0.16317822952E+03  0.13371265836E+04  0.13623092628E+04  0.17200000000E+03 0. -1.
</event>
<event>
 4    1  0.3196149E-002  0.5022556E+03  0.7818608E-02  0.1013192E+00
         -1   -1    0    0    0  501 -0.00000000000E+00  0.00000000000E+00  0.20736429902E+03  0.20736429902E+03  0.00000000000E+00 0.  1.
          1   -1    0    0  502    0  0.00000000000E+00 -0.00000000000E+00 -0.16031694319E+04  0.16031694319E+04  0.00000000000E+00 0. -1.
          6    1    1    2  502    0 -0.36490323800E+03 -0.29920279074E+03 -0.11424840600E+04  0.12480106211E+04  0.17200000000E+03 0. -1.
         -6    1    1    2    0  501  0.36490323800E+03  0.29920279074E+03 -0.25332107288E+03  0.56252310979E+03  0.17200000000E+03 0.  1.
</event>
<event>
 4    1  0.3196149E-002  0.7264969E+03  0.7818608E-02  0.9672962E-01
         -2   -1    0    0    0  501 -0.00000000000E+00  0.00000000000E+00  0.10069387066E+04  0.10069387066E+04  0.00000000000E+00 0.  1.
          2   -1    0    0  502    0  0.00000000000E+00 -0.00000000000E+00 -0.57811589591E+03  0.57811589591E+03  0.00000000000E+00 0. -1.
          6    1    1    2  502    0 -0.40399571441E+03 -0.57879293437E+03 -0.27704327028E+02  0.72702498435E+03  0.17200000000E+03 0. -1.
         -6    1    1    2    0  501  0.40399571441E+03  0.57879293437E+03  0.45652713769E+03  0.85802961813E+03  0.17200000000E+03 0.  1.
</event>
<event>
 4    1  0.3196149E-002  0.3715867E+03  0.7818608E-02  0.1054088E+00
         -2   -1    0    0    0  501 -0.00000000000E+00  0.00000000000E+00  0.48528881874E+02  0.48528881874E+02  0.00000000000E+00 0.  1.
          2   -1    0    0  502    0  0.00000000000E+00 -0.00000000000E+00 -0.31709083599E+04  0.31709083599E+04  0.00000000000E+00 0. -1.
          6    1    1    2  502    0 -0.32863805349E+03  0.22129844878E+02 -0.20770601572E+04  0.21100368710E+04  0.17200000000E+03 0. -1.
         -6    1    1    2    0  501  0.32863805349E+03 -0.22129844878E+02 -0.10453193208E+04  0.11094003707E+04  0.17200000000E+03 0.  1.
</event>
<event>
 4    1  0.3196149E-002  0.1772532E+03  0.7818608E-02  0.1170488E+00
          2   -1    0    0  502    0  0.00000000000E+00  0.00000000000E+00  0.58802660838E+02  0.58802660838E+02  0.00000000000E+00 0. -1.
         -2   -1    0    0    0  501 -0.00000000000E+00 -0.00000000000E+00 -0.61381509816E+03  0.61381509816E+03  0.00000000000E+00 0.  1.
          6    1    1    2  502    0 -0.10346781753E+02  0.41564723610E+02 -0.39854507817E+03  0.43618443516E+03  0.17200000000E+03 0.  1.
         -6    1    1    2    0  501  0.10346781753E+02 -0.41564723610E+02 -0.15646735915E+03  0.23643332384E+03  0.17200000000E+03 0. -1.
</event>
<event>
 4    1  0.3196149E-002  0.2054929E+03  0.7818608E-02  0.1145186E+00
          3   -1    0    0  502    0  0.00000000000E+00  0.00000000000E+00  0.19452724046E+03  0.19452724046E+03  0.00000000000E+00 0. -1.
         -3   -1    0    0    0  501 -0.00000000000E+00 -0.00000000000E+00 -0.21752240777E+03  0.21752240777E+03  0.00000000000E+00 0.  1.
          6    1    1    2  502    0  0.91789929883E+02  0.64945745249E+02 -0.21721610556E+01  0.20550440223E+03  0.17200000000E+03 0. -1.
         -6    1    1    2    0  501 -0.91789929883E+02 -0.64945745249E+02 -0.20823006261E+02  0.20654524600E+03  0.17200000000E+03 0.  1.
</event>
<event>
 4    1  0.3196149E-002  0.1891042E+03  0.7818608E-02  0.1159272E+00
          2   -1    0    0  502    0  0.00000000000E+00  0.00000000000E+00  0.31946519183E+03  0.31946519183E+03  0.00000000000E+00 0. -1.
         -2   -1    0    0    0  501 -0.00000000000E+00 -0.00000000000E+00 -0.11653440217E+03  0.11653440217E+03  0.00000000000E+00 0.  1.
          6    1    1    2  502    0  0.25095531534E+02 -0.74475631734E+02  0.14475878948E+03  0.23815018908E+03  0.17200000000E+03 0. -1.
         -6    1    1    2    0  501 -0.25095531534E+02  0.74475631734E+02  0.58172000175E+02  0.19784940493E+03  0.17200000000E+03 0. -1.
</event>
<event>
 4    1  0.3196149E-002  0.3179651E+03  0.7818608E-02  0.1076590E+00
         -2   -1    0    0    0  501 -0.00000000000E+00  0.00000000000E+00  0.13859758036E+03  0.13859758036E+03  0.00000000000E+00 0.  1.
          2   -1    0    0  502    0  0.00000000000E+00 -0.00000000000E+00 -0.31075236316E+04  0.31075236316E+04  0.00000000000E+00 0. -1.
          6    1    1    2  502    0  0.69353022738E+02  0.25827882404E+03 -0.29043016552E+04  0.29216553351E+04  0.17200000000E+03 0. -1.
         -6    1    1    2    0  501 -0.69353022738E+02 -0.25827882404E+03 -0.64624396099E+02  0.32446587692E+03  0.17200000000E+03 0.  1.
</event>
<event>
 4    1  0.3196149E-002  0.2531157E+03  0.7818608E-02  0.1111351E+00
          1   -1    0    0  502    0  0.00000000000E+00  0.00000000000E+00  0.76703142318E+03  0.76703142318E+03  0.00000000000E+00 0. -1.
         -1   -1    0    0    0  501 -0.00000000000E+00 -0.00000000000E+00 -0.95473889136E+02  0.95473889136E+02  0.00000000000E+00 0.  1.
          6    1    1    2  502    0 -0.11705213396E+03 -0.14416087731E+03  0.18322484986E+03  0.31247224872E+03  0.17200000000E+03 0.  1.
         -6    1    1    2    0  501  0.11705213396E+03  0.14416087731E+03  0.48833268418E+03  0.55003306360E+03  0.17200000000E+03 0. -1.
</event>
<event>
 4    1  0.3196149E-002  0.1960207E+03  0.7818608E-02  0.1153140E+00
         -1   -1    0    0    0  501 -0.00000000000E+00  0.00000000000E+00  0.36336779623E+02  0.36336779623E+02  0.00000000000E+00 0.  1.
          1   -1    0    0  502    0  0.00000000000E+00 -0.00000000000E+00 -0.10584381105E+04  0.10584381105E+04  0.00000000000E+00 0. -1.
          6    1    1    2  502    0  0.92679980761E+02 -0.15828518035E+02 -0.52782371173E+03  0.56304705974E+03  0.17200000000E+03 0.  1.
         -6    1    1    2    0  501 -0.92679980761E+02  0.15828518035E+02 -0.49427761918E+03  0.53172783042E+03  0.17200000000E+03 0.  1.
</event>
<event>
 4    1  0.3196149E-002  0.3208520E+03  0.7818608E-02  0.1075258E+00
          2   -1    0    0  502    0  0.00000000000E+00  0.00000000000E+00  0.97616501273E+03  0.97616501273E+03  0.00000000000E+00 0. -1.
         -2   -1    0    0    0  501 -0.00000000000E+00 -0.00000000000E+00 -0.11203276626E+03  0.11203276626E+03  0.00000000000E+00 0.  1.
          6    1    1    2  502    0 -0.27007914008E+03 -0.20476196035E+02  0.56385874713E+03  0.64875473272E+03  0.17200000000E+03 0. -1.
         -6    1    1    2    0  501  0.27007914008E+03  0.20476196035E+02  0.30027349934E+03  0.43944304627E+03  0.17200000000E+03 0. -1.
</event>
<event>
 4    1  0.3196149E-002  0.1935969E+03  0.7818608E-02  0.1155257E+00
          1   -1    0    0  502    0  0.00000000000E+00  0.00000000000E+00  0.29728251393E+03  0.29728251393E+03  0.00000000000E+00 0. -1.
         -1   -1    0    0    0  501 -0.00000000000E+00 -0.00000000000E+00 -0.19249566526E+03  0.19249566526E+03  0.00000000000E+00 0.  1.
          6    1    1    2  502    0 -0.12258969133E+02 -0.88008483559E+02  0.19624408527E+03  0.27566558818E+03  0.17200000000E+03 0. -1.
         -6    1    1    2    0  501  0.12258969133E+02  0.88008483559E+02 -0.91457236605E+02  0.21411259101E+03  0.17200000000E+03 0.  1.
</event>
<event>
 4    1  0.3196149E-002  0.2341382E+03  0.7818608E-02  0.1123761E+00
          1   -1    0    0  502    0  0.00000000000E+00  0.00000000000E+00  0.49439589169E+03  0.49439589169E+03  0.00000000000E+00 0. -1.
         -1   -1    0    0    0  501 -0.00000000000E+00 -0.00000000000E+00 -0.11281987265E+03  0.11281987265E+03  0.00000000000E+00 0.  1.
          6    1    1    2  502    0 -0.75035338939E+02 -0.14002288217E+03  0.23055588687E+03  0.32859812323E+03  0.17200000000E+03 0. -1.
         -6    1    1    2    0  501  0.75035338939E+02  0.14002288217E+03  0.15102013216E+03  0.27861764111E+03  0.17200000000E+03 0.  1.
</event>
<event>
 4    1  0.3196149E-002  0.2011524E+03  0.7818608E-02  0.1148770E+00
         -2   -1    0    0    0  501 -0.00000000000E+00  0.00000000000E+00  0.42956890877E+02  0.42956890877E+02  0.00000000000E+00 0.  1.
          2   -1    0    0  502    0  0.00000000000E+00 -0.00000000000E+00 -0.10063493149E+04  0.10063493149E+04  0.00000000000E+00 0. -1.
          6    1    1    2  502    0 -0.10186765983E+03 -0.22389300655E+02 -0.61443946529E+03  0.64652777002E+03  0.17200000000E+03 0. -1.
         -6    1    1    2    0  501  0.10186765983E+03  0.22389300655E+02 -0.34895295874E+03  0.40277843576E+03  0.17200000000E+03 0.  1.
</event>
<event>
 4    1  0.3196149E-002  0.4116755E+03  0.7818608E-02  0.1039810E+00
          2   -1    0    0  502    0  0.00000000000E+00  0.00000000000E+00  0.10754548314E+04  0.10754548314E+04  0.00000000000E+00 0. -1.
         -2   -1    0    0    0  501 -0.00000000000E+00 -0.00000000000E+00 -0.16234767383E+03  0.16234767383E+03  0.00000000000E+00 0.  1.
          6    1    1    2  502    0  0.22121956200E+03 -0.30158680610E+03  0.56254607752E+03  0.69709022771E+03  0.17200000000E+03 0. -1.
         -6    1    1    2    0  501 -0.22121956200E+03  0.30158680610E+03  0.35056108005E+03  0.54071227753E+03  0.17200000000E+03 0.  1.
</event>
<event>
 4    1  0.3196149E-002  0.2071081E+03  0.7818608E-02  0.1143877E+00
         -2   -1    0    0    0  501 -0.00000000000E+00  0.00000000000E+00  0.17986216804E+03  0.17986216804E+03  0.00000000000E+00 0.  1.
          2   -1    0    0  502    0  0.00000000000E+00 -0.00000000000E+00 -0.29966613566E+03  0.29966613566E+03  0.00000000000E+00 0. -1.
          6    1    1    2  502    0  0.42862083998E+02 -0.10711031300E+03 -0.16824153808E+03  0.26683139345E+03  0.17200000000E+03 0. -1.
         -6    1    1    2    0  501 -0.42862083998E+02  0.10711031300E+03  0.48437570461E+02  0.21269691024E+03  0.17200000000E+03 0.  1.
</event>
<event>
 4    1  0.3196149E-002  0.2855178E+03  0.7818608E-02  0.1092713E+00
          1   -1    0    0  502    0  0.00000000000E+00  0.00000000000E+00  0.19146016889E+04  0.19146016889E+04  0.00000000000E+00 0. -1.
         -1   -1    0    0    0  501 -0.00000000000E+00 -0.00000000000E+00 -0.87793684319E+02  0.87793684319E+02  0.00000000000E+00 0.  1.
          6    1    1    2  502    0  0.20132800666E+03  0.10678696281E+03  0.16319117778E+04  0.16567004776E+04  0.17200000000E+03 0. -1.
         -6    1    1    2    0  501 -0.20132800666E+03 -0.10678696281E+03  0.19489622676E+03  0.34569489568E+03  0.17200000000E+03 0.  1.
</event>
<event>
 4    1  0.3196149E-002  0.2323791E+03  0.7818608E-02  0.1124976E+00
          1   -1    0    0  502    0  0.00000000000E+00  0.00000000000E+00  0.14409081099E+03  0.14409081099E+03  0.00000000000E+00 0. -1.
         -1   -1    0    0    0  501 -0.00000000000E+00 -0.00000000000E+00 -0.43158750818E+03  0.43158750818E+03  0.00000000000E+00 0.  1.
          6    1    1    2  502    0 -0.46355230771E+02 -0.14922218775E+03 -0.39305445568E+02  0.23567983959E+03  0.17200000000E+03 0. -1.
         -6    1    1    2    0  501  0.46355230771E+02  0.14922218775E+03 -0.24819125162E+03  0.33999847958E+03  0.17200000000E+03 0.  1.
</event>
<event>
 4    1  0.3196149E-002  0.3277980E+03  0.7818608E-02  0.1072115E+00
         -2   -1    0    0    0  501 -0.00000000000E+00  0.00000000000E+00  0.77709443166E+02  0.77709443166E+02  0.00000000000E+00 0.  1.
          2   -1    0    0  502    0  0.00000000000E+00 -0.00000000000E+00 -0.14330754725E+04  0.14330754725E+04  0.00000000000E+00 0. -1.
          6    1    1    2  502    0  0.65781159802E+02 -0.27118332895E+03 -0.53610454901E+03  0.62837858521E+03  0.17200000000E+03 0. -1.
         -6    1    1    2    0  501 -0.65781159802E+02  0.27118332895E+03 -0.81926148031E+03  0.88240633045E+03  0.17200000000E+03 0.  1.
</event>
<event>
 4    1  0.3196149E-002  0.2117480E+03  0.7818608E-02  0.1140189E+00
          4   -1    0    0  502    0  0.00000000000E+00  0.00000000000E+00  0.24668781387E+03  0.24668781387E+03  0.00000000000E+00 0. -1.
         -4   -1    0    0    0  501 -0.00000000000E+00 -0.00000000000E+00 -0.18449198207E+03  0.18449198207E+03  0.00000000000E+00 0.  1.
          6    1    1    2  502    0  0.11182950500E+03 -0.52415398319E+02  0.48481830778E+01  0.21180348686E+03  0.17200000000E+03 0. -1.
         -6    1    1    2    0  501 -0.11182950500E+03  0.52415398319E+02  0.57347648720E+02  0.21937630907E+03  0.17200000000E+03 0.  1.
</event>
<event>
 4    1  0.3196149E-002  0.2052616E+03  0.7818608E-02  0.1145374E+00
         -2   -1    0    0    0  501 -0.00000000000E+00  0.00000000000E+00  0.11097610840E+03  0.11097610840E+03  0.00000000000E+00 0.  1.
          2   -1    0    0  502    0  0.00000000000E+00 -0.00000000000E+00 -0.68073785620E+03  0.68073785620E+03  0.00000000000E+00 0. -1.
          6    1    1    2  502    0 -0.11169810123E+03  0.84780547896E+01 -0.54814595826E+03  0.58531729411E+03  0.17200000000E+03 0. -1.
         -6    1    1    2    0  501  0.11169810123E+03 -0.84780547896E+01 -0.21615789533E+02  0.20639667049E+03  0.17200000000E+03 0.  1.
</event>
<event>
 4    1  0.3196149E-002  0.2712758E+03  0.7818608E-02  0.1100552E+00
         -2   -1    0    0    0  501 -0.00000000000E+00  0.00000000000E+00  0.85492474096E+02  0.85492474096E+02  0.00000000000E+00 0.  1.
          2   -1    0    0  502    0  0.00000000000E+00 -0.00000000000E+00 -0.87991588129E+03  0.87991588129E+03  0.00000000000E+00 0. -1.
          6    1    1    2  502    0 -0.93459939896E+02 -0.18780781538E+03 -0.46838903471E+03  0.54127518299E+03  0.17200000000E+03 0. -1.
         -6    1    1    2    0  501  0.93459939896E+02  0.18780781538E+03 -0.32603437248E+03  0.42413317239E+03  0.17200000000E+03 0.  1.
</event>
<event>
 4    1  0.3196149E-002  0.1820694E+03  0.7818608E-02  0.1165815E+00
          2   -1    0    0  502    0  0.00000000000E+00  0.00000000000E+00  0.10819262532E+04  0.10819262532E+04  0.00000000000E+00 0. -1.
         -2   -1    0    0    0  501 -0.00000000000E+00 -0.00000000000E+00 -0.36480566463E+02  0.36480566463E+02  0.00000000000E+00 0.  1.
          6    1    1    2  502    0 -0.34150035549E+02 -0.48980123832E+02  0.29895436429E+03  0.35003284044E+03  0.17200000000E+03 0.  1.
         -6    1    1    2    0  501  0.34150035549E+02  0.48980123832E+02  0.74649132246E+03  0.76837397923E+03  0.17200000000E+03 0. -1.
</event>
<event>
 4    1  0.3196149E-002  0.3958493E+03  0.7818608E-02  0.1045226E+00
         -2   -1    0    0    0  501 -0.00000000000E+00  0.00000000000E+00  0.18935040146E+03  0.18935040146E+03  0.00000000000E+00 0.  1.
          2   -1    0    0  502    0  0.00000000000E+00 -0.00000000000E+00 -0.90381206133E+03  0.90381206133E+03  0.00000000000E+00 0. -1.
          6    1    1    2  502    0 -0.35061570419E+03 -0.64662744668E+02 -0.19845874008E+03  0.44281205278E+03  0.17200000000E+03 0. -1.
         -6    1    1    2    0  501  0.35061570419E+03  0.64662744668E+02 -0.51600291979E+03  0.65035041001E+03  0.17200000000E+03 0.  1.
</event>
<event>
 4    1  0.3196149E-002  0.2156492E+03  0.7818608E-02  0.1137169E+00
         -1   -1    0    0    0  501 -0.00000000000E+00  0.00000000000E+00  0.30173784845E+02  0.30173784845E+02  0.00000000000E+00 0.  1.
          1   -1    0    0  502    0  0.00000000000E+00 -0.00000000000E+00 -0.27031008742E+04  0.27031008742E+04  0.00000000000E+00 0. -1.
          6    1    1    2  502    0 -0.11283002793E+03 -0.64729838098E+02 -0.22324514987E+04  0.22428428971E+04  0.17200000000E+03 0. -1.
         -6    1    1    2    0  501  0.11283002793E+03  0.64729838098E+02 -0.44047559075E+03  0.49043176201E+03  0.17200000000E+03 0.  1.
</event>
<event>
 4    1  0.3196149E-002  0.1977340E+03  0.7818608E-02  0.1151665E+00
         -2   -1    0    0    0  501 -0.00000000000E+00  0.00000000000E+00  0.17050652353E+03  0.17050652353E+03  0.00000000000E+00 0.  1.
          2   -1    0    0  502    0  0.00000000000E+00 -0.00000000000E+00 -0.29941855916E+03  0.29941855916E+03  0.00000000000E+00 0. -1.
          6    1    1    2  502    0 -0.96381938820E+01 -0.97066220302E+02  0.49240378885E+02  0.20377281668E+03  0.17200000000E+03 0.  1.
         -6    1    1    2    0  501  0.96381938820E+01  0.97066220302E+02 -0.17815241451E+03  0.26615226601E+03  0.17200000000E+03 0. -1.
</event>
<event>
 4    1  0.3196149E-002  0.4106327E+03  0.7818608E-02  0.1040159E+00
         -2   -1    0    0    0  501 -0.00000000000E+00  0.00000000000E+00  0.12372885120E+03  0.12372885120E+03  0.00000000000E+00 0.  1.
          2   -1    0    0  502    0  0.00000000000E+00 -0.00000000000E+00 -0.13814884210E+04  0.13814884210E+04  0.00000000000E+00 0. -1.
          6    1    1    2  502    0  0.37130581920E+03 -0.34164890523E+02 -0.71638503989E+03  0.82572802817E+03  0.17200000000E+03 0. -1.
         -6    1    1    2    0  501 -0.37130581920E+03  0.34164890523E+02 -0.54137452987E+03  0.67948924400E+03  0.17200000000E+03 0.  1.
</event>
<event>
 4    1  0.3196149E-002  0.2074524E+03  0.7818608E-02  0.1143599E+00
         -1   -1    0    0    0  501 -0.00000000000E+00  0.00000000000E+00  0.72031762058E+02  0.72031762058E+02  0.00000000000E+00 0.  1.
          1   -1    0    0  502    0  0.00000000000E+00 -0.00000000000E+00 -0.62622396058E+03  0.62622396058E+03  0.00000000000E+00 0. -1.
          6    1    1    2  502    0 -0.51206373745E+02  0.10406916417E+03 -0.35191364158E+03  0.40850911223E+03  0.17200000000E+03 0.  1.
         -6    1    1    2    0  501  0.51206373745E+02 -0.10406916417E+03 -0.20227855693E+03  0.28974661040E+03  0.17200000000E+03 0.  1.
</event>
<event>
 4    1  0.3196149E-002  0.3553071E+03  0.7818608E-02  0.1060458E+00
          1   -1    0    0  502    0  0.00000000000E+00  0.00000000000E+00  0.53930586901E+03  0.53930586901E+03  0.00000000000E+00 0. -1.
         -1   -1    0    0    0  501 -0.00000000000E+00 -0.00000000000E+00 -0.32047886973E+03  0.32047886973E+03  0.00000000000E+00 0.  1.
          6    1    1    2  502    0 -0.14109943525E+03  0.27703811309E+03  0.33261784946E+03  0.48670093539E+03  0.17200000000E+03 0. -1.
         -6    1    1    2    0  501  0.14109943525E+03 -0.27703811309E+03 -0.11379085018E+03  0.37308380334E+03  0.17200000000E+03 0.  1.
</event>
<event>
 4    1  0.3196149E-002  0.2008600E+03  0.7818608E-02  0.1149015E+00
          1   -1    0    0  502    0  0.00000000000E+00  0.00000000000E+00  0.61074847036E+03  0.61074847036E+03  0.00000000000E+00 0. -1.
         -1   -1    0    0    0  501 -0.00000000000E+00 -0.00000000000E+00 -0.66063034962E+02  0.66063034962E+02  0.00000000000E+00 0.  1.
          6    1    1    2  502    0  0.31689819742E+02  0.98774884396E+02  0.27534467926E+03  0.34082167604E+03  0.17200000000E+03 0. -1.
         -6    1    1    2    0  501 -0.31689819742E+02 -0.98774884396E+02  0.26934075613E+03  0.33598982928E+03  0.17200000000E+03 0.  1.
</event>
<event>
 4    1  0.3196149E-002  0.1850693E+03  0.7818608E-02  0.1162985E+00
         -1   -1    0    0    0  501 -0.00000000000E+00  0.00000000000E+00  0.20664987677E+02  0.20664987677E+02  0.00000000000E+00 0.  1.
          1   -1    0    0  502    0  0.00000000000E+00 -0.00000000000E+00 -0.23199978905E+04  0.23199978905E+04  0.00000000000E+00 0. -1.
          6    1    1    2  502    0 -0.48972127976E+02  0.47627599195E+02 -0.17751012791E+04  0.17847227260E+04  0.17200000000E+03 0. -1.
         -6    1    1    2    0  501  0.48972127976E+02 -0.47627599195E+02 -0.52423162365E+03  0.55594015214E+03  0.17200000000E+03 0. -1.
</event>
<event>
 4    1  0.3196149E-002  0.1769612E+03  0.7818608E-02  0.1170777E+00
          1   -1    0    0  502    0  0.00000000000E+00  0.00000000000E+00  0.95240712803E+03  0.95240712803E+03  0.00000000000E+00 0. -1.
         -1   -1    0    0    0  501 -0.00000000000E+00 -0.00000000000E+00 -0.33751618904E+02  0.33751618904E+02  0.00000000000E+00 0.  1.
          6    1    1    2  502    0  0.38228710147E+02 -0.16426506421E+02  0.53856000235E+03  0.56688811993E+03  0.17200000000E+03 0. -1.
         -6    1    1    2    0  501 -0.38228710147E+02  0.16426506421E+02  0.38009550678E+03  0.41927062701E+03  0.17200000000E+03 0.  1.
</event>
<event>
 4    1  0.3196149E-002  0.3322616E+03  0.7818608E-02  0.1070141E+00
         -2   -1    0    0    0  501 -0.00000000000E+00  0.00000000000E+00  0.83431259587E+02  0.83431259587E+02  0.00000000000E+00 0.  1.
          2   -1    0    0  502    0  0.00000000000E+00 -0.00000000000E+00 -0.13232655146E+04  0.13232655146E+04  0.00000000000E+00 0. -1.
          6    1    1    2  502    0  0.28180286886E+03  0.37428650707E+02 -0.62412307202E+03  0.70705542203E+03  0.17200000000E+03 0.  1.
         -6    1    1    2    0  501 -0.28180286886E+03 -0.37428650707E+02 -0.61571118303E+03  0.69964135219E+03  0.17200000000E+03 0.  1.
</event>
<event>
 4    1  0.3196149E-002  0.1817816E+03  0.7818608E-02  0.1166090E+00
         -1   -1    0    0    0  501 -0.00000000000E+00  0.00000000000E+00  0.41372265706E+03  0.41372265706E+03  0.00000000000E+00 0.  1.
          1   -1    0    0  502    0  0.00000000000E+00 -0.00000000000E+00 -0.12040117369E+03  0.12040117369E+03  0.00000000000E+00 0. -1.
          6    1    1    2  502    0  0.77725189599E+01 -0.58310734902E+02 -0.82866919562E+01  0.18197039078E+03  0.17200000000E+03 0. -1.
         -6    1    1    2    0  501 -0.77725189599E+01  0.58310734902E+02  0.30160817533E+03  0.35215343997E+03  0.17200000000E+03 0.  1.
</event>
<event>
 4    1  0.3196149E-002  0.4122358E+03  0.7818608E-02  0.1039623E+00
         -1   -1    0    0    0  501 -0.00000000000E+00  0.00000000000E+00  0.16517964723E+03  0.16517964723E+03  0.00000000000E+00 0.  1.
          1   -1    0    0  502    0  0.00000000000E+00 -0.00000000000E+00 -0.11922666159E+04  0.11922666159E+04  0.00000000000E+00 0. -1.
          6    1    1    2  502    0 -0.36525233827E+03  0.83337087872E+02 -0.76485261769E+03  0.86887160594E+03  0.17200000000E+03 0. -1.
         -6    1    1    2    0  501  0.36525233827E+03 -0.83337087872E+02 -0.26223435099E+03  0.48857465720E+03  0.17200000000E+03 0.  1.
</event>
<event>
 4    1  0.3196149E-002  0.2992159E+03  0.7818608E-02  0.1085633E+00
          2   -1    0    0  502    0  0.00000000000E+00  0.00000000000E+00  0.39766730182E+03  0.39766730182E+03  0.00000000000E+00 0. -1.
         -2   -1    0    0    0  501 -0.00000000000E+00 -0.00000000000E+00 -0.22634723726E+03  0.22634723726E+03  0.00000000000E+00 0.  1.
          6    1    1    2  502    0  0.93310583880E+02 -0.22636102144E+03  0.10846147751E+03  0.31826729206E+03  0.17200000000E+03 0. -1.
         -6    1    1    2    0  501 -0.93310583880E+02  0.22636102144E+03  0.62858587052E+02  0.30574724702E+03  0.17200000000E+03 0.  1.
</event>
<event>
 4    1  0.3196149E-002  0.1908092E+03  0.7818608E-02  0.1157734E+00
         -2   -1    0    0    0  501 -0.00000000000E+00  0.00000000000E+00  0.17577374341E+03  0.17577374341E+03  0.00000000000E+00 0.  1.
          2   -1    0    0  502    0  0.00000000000E+00 -0.00000000000E+00 -0.54133835059E+03  0.54133835059E+03  0.00000000000E+00 0. -1.
          6    1    1    2  502    0 -0.60320585552E+01  0.82387801252E+02 -0.46451085246E+03  0.50217374242E+03  0.17200000000E+03 0. -1.
         -6    1    1    2    0  501  0.60320585552E+01 -0.82387801252E+02  0.98946245282E+02  0.21493835158E+03  0.17200000000E+03 0.  1.
</event>
<event>
 4    1  0.3196149E-002  0.2558374E+03  0.7818608E-02  0.1109670E+00
          2   -1    0    0  502    0  0.00000000000E+00  0.00000000000E+00  0.26681883318E+04  0.26681883318E+04  0.00000000000E+00 0. -1.
         -2   -1    0    0    0  501 -0.00000000000E+00 -0.00000000000E+00 -0.38512436510E+02  0.38512436510E+02  0.00000000000E+00 0.  1.
          6    1    1    2  502    0  0.21323746920E+02 -0.18818629787E+03  0.21302719398E+04  0.21455794841E+04  0.17200000000E+03 0. -1.
         -6    1    1    2    0  501 -0.21323746920E+02  0.18818629787E+03  0.49940395549E+03  0.56112128426E+03  0.17200000000E+03 0.  1.
</event>
<event>
 4    1  0.3196149E-002  0.2474903E+03  0.7818608E-02  0.1114901E+00
         -1   -1    0    0    0  501 -0.00000000000E+00  0.00000000000E+00  0.95993738112E+02  0.95993738112E+02  0.00000000000E+00 0.  1.
          1   -1    0    0  502    0  0.00000000000E+00 -0.00000000000E+00 -0.65926719056E+03  0.65926719056E+03  0.00000000000E+00 0. -1.
          6    1    1    2  502    0  0.17795329592E+03 -0.23603007019E+00 -0.21393495878E+03  0.32713849946E+03  0.17200000000E+03 0.  1.
         -6    1    1    2    0  501 -0.17795329592E+03  0.23603007019E+00 -0.34933849366E+03  0.42812242921E+03  0.17200000000E+03 0. -1.
</event>
<event>
 4    1  0.3196149E-002  0.2050493E+03  0.7818608E-02  0.1145547E+00
         -2   -1    0    0    0  501 -0.00000000000E+00  0.00000000000E+00  0.97802888083E+02  0.97802888083E+02  0.00000000000E+00 0.  1.
          2   -1    0    0  502    0  0.00000000000E+00 -0.00000000000E+00 -0.48035702355E+03  0.48035702355E+03  0.00000000000E+00 0. -1.
          6    1    1    2  502    0  0.10497759935E+03  0.37959563675E+02 -0.28497006630E+03  0.35107429916E+03  0.17200000000E+03 0. -1.
         -6    1    1    2    0  501 -0.10497759935E+03 -0.37959563675E+02 -0.97584069168E+02  0.22708561248E+03  0.17200000000E+03 0.  1.
</event>
<event>
 4    1  0.3196149E-002  0.2492146E+03  0.7818608E-02  0.1113802E+00
          1   -1    0    0  502    0  0.00000000000E+00  0.00000000000E+00  0.65315643418E+02  0.65315643418E+02  0.00000000000E+00 0. -1.
         -1   -1    0    0    0  501 -0.00000000000E+00 -0.00000000000E+00 -0.95092486492E+03  0.95092486492E+03  0.00000000000E+00 0.  1.
          6    1    1    2  502    0  0.36912550337E+02 -0.17652590239E+03 -0.44592265312E+03  0.51083749192E+03  0.17200000000E+03 0. -1.
         -6    1    1    2    0  501 -0.36912550337E+02  0.17652590239E+03 -0.43968656838E+03  0.50540301642E+03  0.17200000000E+03 0.  1.
</event>
<event>
 4    1  0.3196149E-002  0.1775565E+03  0.7818608E-02  0.1170189E+00
          2   -1    0    0  502    0  0.00000000000E+00  0.00000000000E+00  0.20629178225E+03  0.20629178225E+03  0.00000000000E+00 0. -1.
         -2   -1    0    0    0  501 -0.00000000000E+00 -0.00000000000E+00 -0.15286385517E+03  0.15286385517E+03  0.00000000000E+00 0.  1.
          6    1    1    2  502    0  0.42966283030E+02 -0.98082216525E+01  0.29619343984E+02  0.18001002257E+03  0.17200000000E+03 0.  1.
         -6    1    1    2    0  501 -0.42966283030E+02  0.98082216525E+01  0.23808583089E+02  0.17914561484E+03  0.17200000000E+03 0. -1.
</event>
<event>
 4    1  0.3196149E-002  0.3290850E+03  0.7818608E-02  0.1071542E+00
         -2   -1    0    0    0  501 -0.00000000000E+00  0.00000000000E+00  0.21655654384E+03  0.21655654384E+03  0.00000000000E+00 0.  1.
          2   -1    0    0  502    0  0.00000000000E+00 -0.00000000000E+00 -0.12186667678E+04  0.12186667678E+04  0.00000000000E+00 0. -1.
          6    1    1    2  502    0 -0.26947462181E+03  0.78079264572E+02 -0.10520971457E+04  0.11023635278E+04  0.17200000000E+03 0. -1.
         -6    1    1    2    0  501  0.26947462181E+03 -0.78079264572E+02  0.49986921780E+02  0.33285978385E+03  0.17200000000E+03 0.  1.
</event>
<event>
 4    1  0.3196149E-002  0.2128282E+03  0.7818608E-02  0.1139346E+00
          2   -1    0    0  502    0  0.00000000000E+00  0.00000000000E+00  0.45926924575E+03  0.45926924575E+03  0.00000000000E+00 0. -1.
         -2   -1    0    0    0  501 -0.00000000000E+00 -0.00000000000E+00 -0.10693884531E+03  0.10693884531E+03  0.00000000000E+00 0.  1.
          6    1    1    2  502    0  0.12350934358E+03 -0.21384044289E+02  0.25509776470E+03  0.33222086758E+03  0.17200000000E+03 0. -1.
         -6    1    1    2    0  501 -0.12350934358E+03  0.21384044289E+02  0.97232635743E+02  0.23398722349E+03  0.17200000000E+03 0.  1.
</event>
<event>
 4    1  0.3196149E-002  0.1752493E+03  0.7818608E-02  0.1172482E+00
          1   -1    0    0  502    0  0.00000000000E+00  0.00000000000E+00  0.12556952041E+04  0.12556952041E+04  0.00000000000E+00 0. -1.
         -1   -1    0    0    0  501 -0.00000000000E+00 -0.00000000000E+00 -0.24467588557E+02  0.24467588557E+02  0.00000000000E+00 0.  1.
          6    1    1    2  502    0  0.19544189154E+02 -0.27319378146E+02  0.62800269848E+03  0.65199671246E+03  0.17200000000E+03 0.  1.
         -6    1    1    2    0  501 -0.19544189154E+02  0.27319378146E+02  0.60322491704E+03  0.62816608018E+03  0.17200000000E+03 0. -1.
</event>
<event>
 4    1  0.3196149E-002  0.1764094E+03  0.7818608E-02  0.1171324E+00
         -1   -1    0    0    0  501 -0.00000000000E+00  0.00000000000E+00  0.43344374732E+02  0.43344374732E+02  0.00000000000E+00 0.  1.
          1   -1    0    0  502    0  0.00000000000E+00 -0.00000000000E+00 -0.96792944828E+03  0.96792944828E+03  0.00000000000E+00 0. -1.
          6    1    1    2  502    0  0.13843879318E+02 -0.36669256042E+02 -0.20534459039E+03  0.27071514205E+03  0.17200000000E+03 0.  1.
         -6    1    1    2    0  501 -0.13843879318E+02  0.36669256042E+02 -0.71924048316E+03  0.74055868096E+03  0.17200000000E+03 0. -1.
</event>
<event>
 4    1  0.3196149E-002  0.1951186E+03  0.7818608E-02  0.1153924E+00
          1   -1    0    0  502    0  0.00000000000E+00  0.00000000000E+00  0.62960393609E+03  0.62960393609E+03  0.00000000000E+00 0. -1.
         -1   -1    0    0    0  501 -0.00000000000E+00 -0.00000000000E+00 -0.10146758592E+03  0.10146758592E+03  0.00000000000E+00 0.  1.
          6    1    1    2  502    0  0.82545774578E+02  0.40907924033E+02  0.49642359659E+03  0.53339258563E+03  0.17200000000E+03 0. -1.
         -6    1    1    2    0  501 -0.82545774578E+02 -0.40907924033E+02  0.31712753578E+02  0.19767893638E+03  0.17200000000E+03 0.  1.
</event>
<event>
 4    1  0.3196149E-002  0.1040422E+04  0.7818608E-02  0.9265289E-01
         -2   -1    0    0    0  501 -0.00000000000E+00  0.00000000000E+00  0.83381174795E+03  0.83381174795E+03  0.00000000000E+00 0.  1.
          2   -1    0    0  502    0  0.00000000000E+00 -0.00000000000E+00 -0.13303925355E+04  0.13303925355E+04  0.00000000000E+00 0. -1.
          6    1    1    2  502    0  0.98075356104E+03 -0.30168811167E+03 -0.80034224731E+02  0.10434954439E+04  0.17200000000E+03 0. -1.
         -6    1    1    2    0  501 -0.98075356104E+03  0.30168811167E+03 -0.41654656285E+03  0.11207088396E+04  0.17200000000E+03 0.  1.
</event>
<event>
 4    1  0.3196149E-002  0.1844189E+03  0.7818608E-02  0.1163594E+00
         -2   -1    0    0    0  501 -0.00000000000E+00  0.00000000000E+00  0.40507130021E+02  0.40507130021E+02  0.00000000000E+00 0.  1.
          2   -1    0    0  502    0  0.00000000000E+00 -0.00000000000E+00 -0.11188830190E+04  0.11188830190E+04  0.00000000000E+00 0. -1.
          6    1    1    2  502    0  0.50629650025E+02  0.43162062998E+02 -0.82880170469E+03  0.84907160525E+03  0.17200000000E+03 0. -1.
         -6    1    1    2    0  501 -0.50629650025E+02 -0.43162062998E+02 -0.24957418428E+03  0.31031854376E+03  0.17200000000E+03 0. -1.
</event>
<event>
 4    1  0.3196149E-002  0.2628020E+03  0.7818608E-02  0.1105471E+00
         -1   -1    0    0    0  501 -0.00000000000E+00  0.00000000000E+00  0.17916907860E+02  0.17916907860E+02  0.00000000000E+00 0.  1.
          1   -1    0    0  502    0  0.00000000000E+00 -0.00000000000E+00 -0.38570276678E+04  0.38570276678E+04  0.00000000000E+00 0. -1.
          6    1    1    2  502    0 -0.19845567189E+03 -0.98107079146E+01 -0.18723024970E+04  0.18906563791E+04  0.17200000000E+03 0. -1.
         -6    1    1    2    0  501  0.19845567189E+03  0.98107079146E+01 -0.19668082629E+04  0.19842881965E+04  0.17200000000E+03 0. -1.
</event>
<event>
 4    1  0.3196149E-002  0.2542280E+03  0.7818608E-02  0.1110662E+00
          4   -1    0    0  502    0  0.00000000000E+00  0.00000000000E+00  0.18773939800E+03  0.18773939800E+03  0.00000000000E+00 0. -1.
         -4   -1    0    0    0  501 -0.00000000000E+00 -0.00000000000E+00 -0.50674021650E+03  0.50674021650E+03  0.00000000000E+00 0.  1.
          6    1    1    2  502    0  0.10686710523E+03 -0.15371166591E+03  0.37121612787E+02  0.25692385750E+03  0.17200000000E+03 0. -1.
         -6    1    1    2    0  501 -0.10686710523E+03  0.15371166591E+03 -0.35612243129E+03  0.43755575700E+03  0.17200000000E+03 0.  1.
</event>
<event>
 4    1  0.3196149E-002  0.3001417E+03  0.7818608E-02  0.1085170E+00
         -2   -1    0    0    0  501 -0.00000000000E+00  0.00000000000E+00  0.87552266719E+02  0.87552266719E+02  0.00000000000E+00 0.  1.
          2   -1    0    0  502    0  0.00000000000E+00 -0.00000000000E+00 -0.10414472494E+04  0.10414472494E+04  0.00000000000E+00 0. -1.
          6    1    1    2  502    0 -0.16566562941E+03 -0.18181284409E+03 -0.41505644050E+03  0.51220782876E+03  0.17200000000E+03 0. -1.
         -6    1    1    2    0  501  0.16566562941E+03  0.18181284409E+03 -0.53883854214E+03  0.61679168732E+03  0.17200000000E+03 0.  1.
</event>
<event>
 4    1  0.3196149E-002  0.1830193E+03  0.7818608E-02  0.1164913E+00
          2   -1    0    0  502    0  0.00000000000E+00  0.00000000000E+00  0.71018208775E+03  0.71018208775E+03  0.00000000000E+00 0. -1.
         -2   -1    0    0    0  501 -0.00000000000E+00 -0.00000000000E+00 -0.47778025093E+02  0.47778025093E+02  0.00000000000E+00 0.  1.
          6    1    1    2  502    0  0.61315597857E+02  0.12347827997E+02  0.37411367155E+03  0.41648182510E+03  0.17200000000E+03 0. -1.
         -6    1    1    2    0  501 -0.61315597857E+02 -0.12347827997E+02  0.28829039111E+03  0.34147828775E+03  0.17200000000E+03 0. -1.
</event>
<event>
 4    1  0.3196149E-002  0.2660640E+03  0.7818608E-02  0.1103554E+00
          2   -1    0    0  502    0  0.00000000000E+00  0.00000000000E+00  0.11944167027E+04  0.11944167027E+04  0.00000000000E+00 0. -1.
         -2   -1    0    0    0  501 -0.00000000000E+00 -0.00000000000E+00 -0.74253265113E+02  0.74253265113E+02  0.00000000000E+00 0.  1.
          6    1    1    2  502    0  0.46079109620E+02  0.19769362707E+03  0.27511063100E+03  0.38272171851E+03  0.17200000000E+03 0. -1.
         -6    1    1    2    0  501 -0.46079109620E+02 -0.19769362707E+03  0.84505280659E+03  0.88594824931E+03  0.17200000000E+03 0.  1.
</event>
<event>
 4    1  0.3196149E-002  0.3700723E+03  0.7818608E-02  0.1054665E+00
          2   -1    0    0  502    0  0.00000000000E+00  0.00000000000E+00  0.27308835881E+04  0.27308835881E+04  0.00000000000E+00 0. -1.
         -2   -1    0    0    0  501 -0.00000000000E+00 -0.00000000000E+00 -0.72563045750E+02  0.72563045750E+02  0.00000000000E+00 0.  1.
          6    1    1    2  502    0 -0.25756840560E+03 -0.20255368575E+03  0.55012671430E+03  0.66301800954E+03  0.17200000000E+03 0. -1.
         -6    1    1    2    0  501  0.25756840560E+03  0.20255368575E+03  0.21081938281E+04  0.21404286243E+04  0.17200000000E+03 0.  1.
</event>
<event>
 4    1  0.3196149E-002  0.2326621E+03  0.7818608E-02  0.1124780E+00
          1   -1    0    0  502    0  0.00000000000E+00  0.00000000000E+00  0.38220167013E+02  0.38220167013E+02  0.00000000000E+00 0. -1.
         -1   -1    0    0    0  501 -0.00000000000E+00 -0.00000000000E+00 -0.23821850981E+04  0.23821850981E+04  0.00000000000E+00 0.  1.
          6    1    1    2  502    0  0.14063416693E+03  0.69062868764E+02 -0.40137969276E+03  0.46393674839E+03  0.17200000000E+03 0. -1.
         -6    1    1    2    0  501 -0.14063416693E+03 -0.69062868764E+02 -0.19425852383E+04  0.19564685167E+04  0.17200000000E+03 0.  1.
</event>
<event>
 4    1  0.3196149E-002  0.2262966E+03  0.7818608E-02  0.1129274E+00
         -2   -1    0    0    0  501 -0.00000000000E+00  0.00000000000E+00  0.50661400192E+02  0.50661400192E+02  0.00000000000E+00 0.  1.
          2   -1    0    0  502    0  0.00000000000E+00 -0.00000000000E+00 -0.10225127988E+04  0.10225127988E+04  0.00000000000E+00 0. -1.
          6    1    1    2  502    0  0.81377387448E+02 -0.12249028852E+03 -0.54327755114E+03  0.58852412656E+03  0.17200000000E+03 0.  1.
         -6    1    1    2    0  501 -0.81377387448E+02  0.12249028852E+03 -0.42857384742E+03  0.48465007239E+03  0.17200000000E+03 0.  1.
</event>
<event>
 4    1  0.3196149E-002  0.5215740E+03  0.7818608E-02  0.1008296E+00
          2   -1    0    0  502    0  0.00000000000E+00  0.00000000000E+00  0.75739037205E+03  0.75739037205E+03  0.00000000000E+00 0. -1.
         -2   -1    0    0    0  501 -0.00000000000E+00 -0.00000000000E+00 -0.45208029670E+03  0.45208029670E+03  0.00000000000E+00 0.  1.
          6    1    1    2  502    0  0.45870534016E+03 -0.17901082338E+03  0.42679107848E+03  0.67393626453E+03  0.17200000000E+03 0. -1.
         -6    1    1    2    0  501 -0.45870534016E+03  0.17901082338E+03 -0.12148100314E+03  0.53553440422E+03  0.17200000000E+03 0.  1.
</event>
<event>
 4    1  0.3196149E-002  0.2511570E+03  0.7818608E-02  0.1112576E+00
         -2   -1    0    0    0  501 -0.00000000000E+00  0.00000000000E+00  0.73172715497E+03  0.73172715497E+03  0.00000000000E+00 0.  1.
          2   -1    0    0  502    0  0.00000000000E+00 -0.00000000000E+00 -0.11771980144E+03  0.11771980144E+03  0.00000000000E+00 0. -1.
          6    1    1    2  502    0  0.13091552461E+03 -0.12789425290E+03  0.87254736873E+02  0.26588193548E+03  0.17200000000E+03 0. -1.
         -6    1    1    2    0  501 -0.13091552461E+03  0.12789425290E+03  0.52675261665E+03  0.58356502093E+03  0.17200000000E+03 0.  1.
</event>
<event>
 4    1  0.3196149E-002  0.3136800E+03  0.7818608E-02  0.1078595E+00
          2   -1    0    0  502    0  0.00000000000E+00  0.00000000000E+00  0.41784066420E+04  0.41784066420E+04  0.00000000000E+00 0. -1.
         -2   -1    0    0    0  501 -0.00000000000E+00 -0.00000000000E+00 -0.36918793271E+02  0.36918793271E+02  0.00000000000E+00 0.  1.
          6    1    1    2  502    0  0.14044034193E+03  0.22155735531E+03  0.80236781023E+03  0.86150406513E+03  0.17200000000E+03 0. -1.
         -6    1    1    2    0  501 -0.14044034193E+03 -0.22155735531E+03  0.33391200384E+04  0.33538213701E+04  0.17200000000E+03 0. -1.
</event>
<event>
 4    1  0.3196149E-002  0.2208898E+04  0.7818608E-02  0.8514734E-01
          1   -1    0    0  502    0  0.00000000000E+00  0.00000000000E+00  0.40455330466E+04  0.40455330466E+04  0.00000000000E+00 0. -1.
         -1   -1    0    0    0  501 -0.00000000000E+00 -0.00000000000E+00 -0.12066471334E+04  0.12066471334E+04  0.00000000000E+00 0.  1.
          6    1    1    2  502    0 -0.28928630400E+03 -0.21831080112E+04  0.14764419415E+04  0.26568989369E+04  0.17200000000E+03 0. -1.
         -6    1    1    2    0  501  0.28928630400E+03  0.21831080112E+04  0.13624439718E+04  0.25952812431E+04  0.17200000000E+03 0.  1.
</event>
<event>
 4    1  0.3196149E-002  0.4647347E+03  0.7818608E-02  0.1023417E+00
          2   -1    0    0  502    0  0.00000000000E+00  0.00000000000E+00  0.15601851696E+04  0.15601851696E+04  0.00000000000E+00 0. -1.
         -2   -1    0    0    0  501 -0.00000000000E+00 -0.00000000000E+00 -0.15875177070E+03  0.15875177070E+03  0.00000000000E+00 0.  1.
          6    1    1    2  502    0 -0.49854822920E+02  0.42884597817E+03  0.10082117455E+04  0.11101663389E+04  0.17200000000E+03 0. -1.
         -6    1    1    2    0  501  0.49854822920E+02 -0.42884597817E+03  0.39322165338E+03  0.60877060133E+03  0.17200000000E+03 0.  1.
</event>
<event>
 4    1  0.3196149E-002  0.2969474E+03  0.7818608E-02  0.1086777E+00
          2   -1    0    0  502    0  0.00000000000E+00  0.00000000000E+00  0.10012754117E+04  0.10012754117E+04  0.00000000000E+00 0. -1.
         -2   -1    0    0    0  501 -0.00000000000E+00 -0.00000000000E+00 -0.88236549499E+02  0.88236549499E+02  0.00000000000E+00 0.  1.
          6    1    1    2  502    0  0.68984722651E+02  0.23202337543E+03  0.43252881471E+03  0.52465123107E+03  0.17200000000E+03 0. -1.
         -6    1    1    2    0  501 -0.68984722651E+02 -0.23202337543E+03  0.48051004746E+03  0.56486073010E+03  0.17200000000E+03 0.  1.
</event>
<event>
 4    1  0.3196149E-002  0.2104259E+03  0.7818608E-02  0.1141229E+00
          2   -1    0    0  502    0  0.00000000000E+00  0.00000000000E+00  0.53728419944E+03  0.53728419944E+03  0.00000000000E+00 0. -1.
         -2   -1    0    0    0  501 -0.00000000000E+00 -0.00000000000E+00 -0.89287449530E+02  0.89287449530E+02  0.00000000000E+00 0.  1.
          6    1    1    2  502    0  0.70942819951E+02 -0.98296335513E+02  0.31092909677E+03  0.37544101600E+03  0.17200000000E+03 0. -1.
         -6    1    1    2    0  501 -0.70942819951E+02  0.98296335513E+02  0.13706765314E+03  0.25113063297E+03  0.17200000000E+03 0.  1.
</event>
<event>
 4    1  0.3196149E-002  0.1949968E+03  0.7818608E-02  0.1154030E+00
         -2   -1    0    0    0  501 -0.00000000000E+00  0.00000000000E+00  0.57372715202E+03  0.57372715202E+03  0.00000000000E+00 0.  1.
          2   -1    0    0  502    0  0.00000000000E+00 -0.00000000000E+00 -0.12043810511E+03  0.12043810511E+03  0.00000000000E+00 0. -1.
          6    1    1    2  502    0  0.84651324359E+02  0.35692010725E+02 -0.61124505439E+01  0.19509261492E+03  0.17200000000E+03 0. -1.
         -6    1    1    2    0  501 -0.84651324359E+02 -0.35692010725E+02  0.45940149745E+03  0.49907264221E+03  0.17200000000E+03 0.  1.
</event>
<event>
 4    1  0.3196149E-002  0.3616952E+03  0.7818608E-02  0.1057915E+00
         -2   -1    0    0    0  501 -0.00000000000E+00  0.00000000000E+00  0.19797892072E+03  0.19797892072E+03  0.00000000000E+00 0.  1.
          2   -1    0    0  502    0  0.00000000000E+00 -0.00000000000E+00 -0.66649537422E+03  0.66649537422E+03  0.00000000000E+00 0. -1.
          6    1    1    2  502    0  0.28851433837E+03 -0.13415990803E+03 -0.27423336096E+03  0.45390234702E+03  0.17200000000E+03 0. -1.
         -6    1    1    2    0  501 -0.28851433837E+03  0.13415990803E+03 -0.19428309253E+03  0.41057194792E+03  0.17200000000E+03 0.  1.
</event>
<event>
 4    1  0.3196149E-002  0.4768113E+03  0.7818608E-02  0.1020015E+00
         -2   -1    0    0    0  501 -0.00000000000E+00  0.00000000000E+00  0.85373928794E+02  0.85373928794E+02  0.00000000000E+00 0.  1.
          2   -1    0    0  502    0  0.00000000000E+00 -0.00000000000E+00 -0.26645345629E+04  0.26645345629E+04  0.00000000000E+00 0. -1.
          6    1    1    2  502    0  0.27073159175E+03  0.35280229940E+03 -0.13227922581E+04  0.14061039845E+04  0.17200000000E+03 0. -1.
         -6    1    1    2    0  501 -0.27073159175E+03 -0.35280229940E+03 -0.12563683760E+04  0.13438045072E+04  0.17200000000E+03 0.  1.
</event>
<event>
 4    1  0.3196149E-002  0.3820956E+03  0.7818608E-02  0.1050162E+00
          2   -1    0    0  502    0  0.00000000000E+00  0.00000000000E+00  0.77457339391E+03  0.77457339391E+03  0.00000000000E+00 0. -1.
         -2   -1    0    0    0  501 -0.00000000000E+00 -0.00000000000E+00 -0.18864725708E+03  0.18864725708E+03  0.00000000000E+00 0.  1.
          6    1    1    2  502    0 -0.33871962437E+03  0.41012665777E+02  0.30699980751E+03  0.49014885953E+03  0.17200000000E+03 0. -1.
         -6    1    1    2    0  501  0.33871962437E+03 -0.41012665777E+02  0.27892632932E+03  0.47307179146E+03  0.17200000000E+03 0. -1.
</event>
<event>
 4    1  0.3196149E-002  0.1994645E+03  0.7818608E-02  0.1150192E+00
          1   -1    0    0  502    0  0.00000000000E+00  0.00000000000E+00  0.41096642980E+02  0.41096642980E+02  0.00000000000E+00 0. -1.
         -1   -1    0    0    0  501 -0.00000000000E+00 -0.00000000000E+00 -0.99252831575E+03  0.99252831575E+03  0.00000000000E+00 0.  1.
          6    1    1    2  502    0  0.59474803621E+02  0.81638389322E+02 -0.55677790740E+03  0.59142853925E+03  0.17200000000E+03 0. -1.
         -6    1    1    2    0  501 -0.59474803621E+02 -0.81638389322E+02 -0.39465376538E+03  0.44219641948E+03  0.17200000000E+03 0.  1.
</event>
<event>
 4    1  0.3196149E-002  0.3471117E+03  0.7818608E-02  0.1063807E+00
         -1   -1    0    0    0  501 -0.00000000000E+00  0.00000000000E+00  0.22933044256E+03  0.22933044256E+03  0.00000000000E+00 0.  1.
          1   -1    0    0  502    0  0.00000000000E+00 -0.00000000000E+00 -0.66216543961E+03  0.66216543961E+03  0.00000000000E+00 0. -1.
          6    1    1    2  502    0  0.16786586336E+03  0.25044680861E+03 -0.41900825639E+03  0.54410887784E+03  0.17200000000E+03 0. -1.
         -6    1    1    2    0  501 -0.16786586336E+03 -0.25044680861E+03 -0.13826740660E+02  0.34738700433E+03  0.17200000000E+03 0.  1.
</event>
<event>
 4    1  0.3196149E-002  0.4134703E+03  0.7818608E-02  0.1039213E+00
          2   -1    0    0  502    0  0.00000000000E+00  0.00000000000E+00  0.19418964310E+04  0.19418964310E+04  0.00000000000E+00 0. -1.
         -2   -1    0    0    0  501 -0.00000000000E+00 -0.00000000000E+00 -0.25861532226E+03  0.25861532226E+03  0.00000000000E+00 0.  1.
          6    1    1    2  502    0 -0.11402688271E+03 -0.35828973163E+03  0.17352118191E+04  0.17837930706E+04  0.17200000000E+03 0. -1.
         -6    1    1    2    0  501  0.11402688271E+03  0.35828973163E+03 -0.51930710336E+02  0.41671868263E+03  0.17200000000E+03 0.  1.
</event>
<event>
 4    1  0.3196149E-002  0.3618897E+03  0.7818608E-02  0.1057838E+00
          4   -1    0    0  502    0  0.00000000000E+00  0.00000000000E+00  0.83496921222E+03  0.83496921222E+03  0.00000000000E+00 0. -1.
         -4   -1    0    0    0  501 -0.00000000000E+00 -0.00000000000E+00 -0.16757744670E+03  0.16757744670E+03  0.00000000000E+00 0.  1.
          6    1    1    2  502    0  0.25610773487E+02 -0.31737077967E+03  0.46052948520E+03  0.58570601008E+03  0.17200000000E+03 0. -1.
         -6    1    1    2    0  501 -0.25610773487E+02  0.31737077967E+03  0.20686228033E+03  0.41684064885E+03  0.17200000000E+03 0.  1.
</event>
<event>
 4    1  0.3196149E-002  0.2175446E+03  0.7818608E-02  0.1135727E+00
         -2   -1    0    0    0  501 -0.00000000000E+00  0.00000000000E+00  0.23412653405E+03  0.23412653405E+03  0.00000000000E+00 0.  1.
          2   -1    0    0  502    0  0.00000000000E+00 -0.00000000000E+00 -0.48520208376E+03  0.48520208376E+03  0.00000000000E+00 0. -1.
          6    1    1    2  502    0 -0.18165231896E+02  0.13195335358E+03 -0.40025068767E+03  0.45555051987E+03  0.17200000000E+03 0. -1.
         -6    1    1    2    0  501  0.18165231896E+02 -0.13195335358E+03  0.14917513796E+03  0.26377809795E+03  0.17200000000E+03 0.  1.
</event>
<event>
 4    1  0.3196149E-002  0.3564756E+03  0.7818608E-02  0.1059988E+00
          1   -1    0    0  502    0  0.00000000000E+00  0.00000000000E+00  0.10859401913E+04  0.10859401913E+04  0.00000000000E+00 0. -1.
         -1   -1    0    0    0  501 -0.00000000000E+00 -0.00000000000E+00 -0.21297357591E+03  0.21297357591E+03  0.00000000000E+00 0.  1.
          6    1    1    2  502    0 -0.69199859653E+02 -0.30447038202E+03  0.87241854737E+03  0.94243777296E+03  0.17200000000E+03 0. -1.
         -6    1    1    2    0  501  0.69199859653E+02  0.30447038202E+03  0.54806802842E+00  0.35647599426E+03  0.17200000000E+03 0.  1.
</event>
<event>
 4    1  0.3196149E-002  0.3690161E+03  0.7818608E-02  0.1055070E+00
         -1   -1    0    0    0  501 -0.00000000000E+00  0.00000000000E+00  0.62899332408E+03  0.62899332408E+03  0.00000000000E+00 0.  1.
          1   -1    0    0  502    0  0.00000000000E+00 -0.00000000000E+00 -0.28915310792E+03  0.28915310792E+03  0.00000000000E+00 0. -1.
          6    1    1    2  502    0  0.83194091070E+02 -0.31570184132E+03  0.40004564659E+03  0.54425125517E+03  0.17200000000E+03 0. -1.
         -6    1    1    2    0  501 -0.83194091070E+02  0.31570184132E+03 -0.60205430434E+02  0.37389517683E+03  0.17200000000E+03 0.  1.
</event>
<event>
 4    1  0.3196149E-002  0.2297706E+03  0.7818608E-02  0.1126801E+00
          2   -1    0    0  502    0  0.00000000000E+00  0.00000000000E+00  0.71952814067E+03  0.71952814067E+03  0.00000000000E+00 0. -1.
         -2   -1    0    0    0  501 -0.00000000000E+00 -0.00000000000E+00 -0.23625327014E+03  0.23625327014E+03  0.00000000000E+00 0.  1.
          6    1    1    2  502    0 -0.52858121183E+02  0.14288654798E+03 -0.15516358760E+03  0.27725491066E+03  0.17200000000E+03 0.  1.
         -6    1    1    2    0  501  0.52858121183E+02 -0.14288654798E+03  0.63843845814E+03  0.67852650015E+03  0.17200000000E+03 0. -1.
</event>
<event>
 4    1  0.3196149E-002  0.2665843E+03  0.7818608E-02  0.1103251E+00
          2   -1    0    0  502    0  0.00000000000E+00  0.00000000000E+00  0.34574757186E+03  0.34574757186E+03  0.00000000000E+00 0. -1.
         -2   -1    0    0    0  501 -0.00000000000E+00 -0.00000000000E+00 -0.22962373174E+03  0.22962373174E+03  0.00000000000E+00 0.  1.
          6    1    1    2  502    0 -0.19505838051E+03 -0.58612549190E+02  0.15121840814E+03  0.30648688339E+03  0.17200000000E+03 0. -1.
         -6    1    1    2    0  501  0.19505838051E+03  0.58612549190E+02 -0.35094568023E+02  0.26888442022E+03  0.17200000000E+03 0.  1.
</event>
<event>
 4    1  0.3196149E-002  0.5465415E+03  0.7818608E-02  0.1002298E+00
         -2   -1    0    0    0  501 -0.00000000000E+00  0.00000000000E+00  0.65779414603E+03  0.65779414603E+03  0.00000000000E+00 0.  1.
          2   -1    0    0  502    0  0.00000000000E+00 -0.00000000000E+00 -0.12539780371E+04  0.12539780371E+04  0.00000000000E+00 0. -1.
          6    1    1    2  502    0  0.17849867509E+03  0.48709531953E+03 -0.10615263001E+04  0.11939621909E+04  0.17200000000E+03 0. -1.
         -6    1    1    2    0  501 -0.17849867509E+03 -0.48709531953E+03  0.46534240907E+03  0.71780999226E+03  0.17200000000E+03 0.  1.
</event>
<event>
 4    1  0.3196149E-002  0.1834025E+03  0.7818608E-02  0.1164550E+00
          2   -1    0    0  502    0  0.00000000000E+00  0.00000000000E+00  0.47721186731E+03  0.47721186731E+03  0.00000000000E+00 0. -1.
         -2   -1    0    0    0  501 -0.00000000000E+00 -0.00000000000E+00 -0.71285547001E+02  0.71285547001E+02  0.00000000000E+00 0.  1.
          6    1    1    2  502    0  0.42981578806E+02  0.46958159861E+02  0.23201809445E+03  0.29575138385E+03  0.17200000000E+03 0.  1.
         -6    1    1    2    0  501 -0.42981578806E+02 -0.46958159861E+02  0.17390822585E+03  0.25274603046E+03  0.17200000000E+03 0.  1.
</event>
<event>
 4    1  0.3196149E-002  0.1797951E+03  0.7818608E-02  0.1168002E+00
         -1   -1    0    0    0  501 -0.00000000000E+00  0.00000000000E+00  0.44985451967E+03  0.44985451967E+03  0.00000000000E+00 0.  1.
          1   -1    0    0  502    0  0.00000000000E+00 -0.00000000000E+00 -0.81472101202E+02  0.81472101202E+02  0.00000000000E+00 0. -1.
          6    1    1    2  502    0 -0.51112480279E+02  0.11392115782E+02  0.27544487963E+03  0.32893182828E+03  0.17200000000E+03 0.  1.
         -6    1    1    2    0  501  0.51112480279E+02 -0.11392115782E+02  0.92937538838E+02  0.20239479259E+03  0.17200000000E+03 0. -1.
</event>
<event>
 4    1  0.3196149E-002  0.2378632E+03  0.7818608E-02  0.1121225E+00
          2   -1    0    0  502    0  0.00000000000E+00  0.00000000000E+00  0.41452719835E+03  0.41452719835E+03  0.00000000000E+00 0. -1.
         -2   -1    0    0    0  501 -0.00000000000E+00 -0.00000000000E+00 -0.13767382435E+03  0.13767382435E+03  0.00000000000E+00 0.  1.
          6    1    1    2  502    0 -0.15393574180E+03 -0.57434202473E+02  0.16402718798E+03  0.28893566518E+03  0.17200000000E+03 0. -1.
         -6    1    1    2    0  501  0.15393574180E+03  0.57434202473E+02  0.11282618602E+03  0.26326535752E+03  0.17200000000E+03 0.  1.
</event>
<event>
 4    1  0.3196149E-002  0.2102937E+03  0.7818608E-02  0.1141334E+00
         -1   -1    0    0    0  501 -0.00000000000E+00  0.00000000000E+00  0.98864691897E+03  0.98864691897E+03  0.00000000000E+00 0.  1.
          1   -1    0    0  502    0  0.00000000000E+00 -0.00000000000E+00 -0.53821925932E+02  0.53821925932E+02  0.00000000000E+00 0. -1.
          6    1    1    2  502    0 -0.10133569503E+03  0.66109791389E+02  0.68162814591E+03  0.71333046823E+03  0.17200000000E+03 0. -1.
         -6    1    1    2    0  501  0.10133569503E+03 -0.66109791389E+02  0.25319684713E+03  0.32913837667E+03  0.17200000000E+03 0. -1.
</event>
<event>
 4    1  0.3196149E-002  0.2685754E+03  0.7818608E-02  0.1102098E+00
         -2   -1    0    0    0  501 -0.00000000000E+00  0.00000000000E+00  0.20253460051E+03  0.20253460051E+03  0.00000000000E+00 0.  1.
          2   -1    0    0  502    0  0.00000000000E+00 -0.00000000000E+00 -0.37807297106E+03  0.37807297106E+03  0.00000000000E+00 0. -1.
          6    1    1    2  502    0 -0.16142429877E+03  0.12841714257E+03 -0.15767466597E+03  0.31143870509E+03  0.17200000000E+03 0.  1.
         -6    1    1    2    0  501  0.16142429877E+03 -0.12841714257E+03 -0.17863704570E+02  0.26916886648E+03  0.17200000000E+03 0.  1.
</event>
<event>
 4    1  0.3196149E-002  0.1755471E+03  0.7818608E-02  0.1172183E+00
          1   -1    0    0  502    0  0.00000000000E+00  0.00000000000E+00  0.87617811077E+03  0.87617811077E+03  0.00000000000E+00 0. -1.
         -1   -1    0    0    0  501 -0.00000000000E+00 -0.00000000000E+00 -0.60677134779E+02  0.60677134779E+02  0.00000000000E+00 0.  1.
          6    1    1    2  502    0  0.34041289068E+02  0.86014981308E+01  0.71145073834E+03  0.73278847441E+03  0.17200000000E+03 0. -1.
         -6    1    1    2    0  501 -0.34041289068E+02 -0.86014981308E+01  0.10405023765E+03  0.20406677115E+03  0.17200000000E+03 0.  1.
</event>
<event>
 4    1  0.3196149E-002  0.1778651E+03  0.7818608E-02  0.1169885E+00
         -2   -1    0    0    0  501 -0.00000000000E+00  0.00000000000E+00  0.20639732870E+02  0.20639732870E+02  0.00000000000E+00 0.  1.
          2   -1    0    0  502    0  0.00000000000E+00 -0.00000000000E+00 -0.17439593999E+04  0.17439593999E+04  0.00000000000E+00 0. -1.
          6    1    1    2  502    0  0.44341046147E+02  0.92670634802E+01 -0.11686905120E+04  0.11821478417E+04  0.17200000000E+03 0. -1.
         -6    1    1    2    0  501 -0.44341046147E+02 -0.92670634802E+01 -0.55462915503E+03  0.58245129105E+03  0.17200000000E+03 0. -1.
</event>
<event>
 4    1  0.3196149E-002  0.2165195E+03  0.7818608E-02  0.1136505E+00
         -2   -1    0    0    0  501 -0.00000000000E+00  0.00000000000E+00  0.65591811967E+03  0.65591811967E+03  0.00000000000E+00 0.  1.
          2   -1    0    0  502    0  0.00000000000E+00 -0.00000000000E+00 -0.37356535555E+03  0.37356535555E+03  0.00000000000E+00 0. -1.
          6    1    1    2  502    0 -0.11452228378E+03 -0.64663304695E+02 -0.32171134903E+03  0.38778716914E+03  0.17200000000E+03 0. -1.
         -6    1    1    2    0  501  0.11452228378E+03  0.64663304695E+02  0.60406411315E+03  0.64169630609E+03  0.17200000000E+03 0.  1.
</event>
<event>
 4    1  0.3196149E-002  0.6645597E+03  0.7818608E-02  0.9779836E-01
          2   -1    0    0  502    0  0.00000000000E+00  0.00000000000E+00  0.27506306038E+04  0.27506306038E+04  0.00000000000E+00 0. -1.
         -2   -1    0    0    0  501 -0.00000000000E+00 -0.00000000000E+00 -0.16266519125E+03  0.16266519125E+03  0.00000000000E+00 0.  1.
          6    1    1    2  502    0 -0.23487135817E+03 -0.59740361906E+03  0.11282480063E+04  0.13094209417E+04  0.17200000000E+03 0. -1.
         -6    1    1    2    0  501  0.23487135817E+03  0.59740361906E+03  0.14597174063E+04  0.16038748533E+04  0.17200000000E+03 0.  1.
</event>
<event>
 4    1  0.3196149E-002  0.3318969E+03  0.7818608E-02  0.1070301E+00
         -4   -1    0    0    0  501 -0.00000000000E+00  0.00000000000E+00  0.13006454488E+04  0.13006454488E+04  0.00000000000E+00 0.  1.
          4   -1    0    0  502    0  0.00000000000E+00 -0.00000000000E+00 -0.10637060322E+03  0.10637060322E+03  0.00000000000E+00 0. -1.
          6    1    1    2  502    0  0.88667692172E+02  0.26964721675E+03  0.91472518022E+03  0.97307642889E+03  0.17200000000E+03 0. -1.
         -6    1    1    2    0  501 -0.88667692172E+02 -0.26964721675E+03  0.27954966540E+03  0.43393962318E+03  0.17200000000E+03 0.  1.
</event>
<event>
 4    1  0.3196149E-002  0.2148752E+03  0.7818608E-02  0.1137762E+00
          2   -1    0    0  502    0  0.00000000000E+00  0.00000000000E+00  0.21213748266E+04  0.21213748266E+04  0.00000000000E+00 0. -1.
         -2   -1    0    0    0  501 -0.00000000000E+00 -0.00000000000E+00 -0.38389845008E+02  0.38389845008E+02  0.00000000000E+00 0.  1.
          6    1    1    2  502    0 -0.12563651511E+03  0.28334270206E+02  0.17521318648E+04  0.17652584617E+04  0.17200000000E+03 0. -1.
         -6    1    1    2    0  501  0.12563651511E+03 -0.28334270206E+02  0.33085311677E+03  0.39450620993E+03  0.17200000000E+03 0.  1.
</event>
<event>
 4    1  0.3196149E-002  0.2821816E+03  0.7818608E-02  0.1094503E+00
         -2   -1    0    0    0  501 -0.00000000000E+00  0.00000000000E+00  0.89930823034E+02  0.89930823034E+02  0.00000000000E+00 0.  1.
          2   -1    0    0  502    0  0.00000000000E+00 -0.00000000000E+00 -0.14121832673E+04  0.14121832673E+04  0.00000000000E+00 0. -1.
          6    1    1    2  502    0 -0.12871109135E+03 -0.18296428474E+03 -0.11198333386E+04  0.11548390281E+04  0.17200000000E+03 0. -1.
         -6    1    1    2    0  501  0.12871109135E+03  0.18296428474E+03 -0.20241910565E+03  0.34727506225E+03  0.17200000000E+03 0.  1.
</event>
<event>
 4    1  0.3196149E-002  0.2835773E+03  0.7818608E-02  0.1093751E+00
         -1   -1    0    0    0  501 -0.00000000000E+00  0.00000000000E+00  0.17394462725E+03  0.17394462725E+03  0.00000000000E+00 0.  1.
          1   -1    0    0  502    0  0.00000000000E+00 -0.00000000000E+00 -0.51047417096E+03  0.51047417096E+03  0.00000000000E+00 0. -1.
          6    1    1    2  502    0 -0.22191276908E+03  0.39834550124E+02 -0.27338205948E+03  0.39389569546E+03  0.17200000000E+03 0. -1.
         -6    1    1    2    0  501  0.22191276908E+03 -0.39834550124E+02 -0.63147484227E+02  0.29052310274E+03  0.17200000000E+03 0.  1.
</event>
<event>
 4    1  0.3196149E-002  0.2531583E+03  0.7818608E-02  0.1111325E+00
         -1   -1    0    0    0  501 -0.00000000000E+00  0.00000000000E+00  0.52967669424E+02  0.52967669424E+02  0.00000000000E+00 0.  1.
          1   -1    0    0  502    0  0.00000000000E+00 -0.00000000000E+00 -0.12411846505E+04  0.12411846505E+04  0.00000000000E+00 0. -1.
          6    1    1    2  502    0 -0.10680890673E+03 -0.15197690826E+03 -0.49148696344E+03  0.55285491627E+03  0.17200000000E+03 0. -1.
         -6    1    1    2    0  501  0.10680890673E+03  0.15197690826E+03 -0.69673001763E+03  0.74129740366E+03  0.17200000000E+03 0. -1.
</event>
<event>
 4    1  0.3196149E-002  0.4032053E+03  0.7818608E-02  0.1042675E+00
          1   -1    0    0  502    0  0.00000000000E+00  0.00000000000E+00  0.60938684794E+03  0.60938684794E+03  0.00000000000E+00 0. -1.
         -1   -1    0    0    0  501 -0.00000000000E+00 -0.00000000000E+00 -0.38774230127E+03  0.38774230127E+03  0.00000000000E+00 0.  1.
          6    1    1    2  502    0 -0.34797902316E+03 -0.10909218212E+03  0.38928567500E+03  0.56046216779E+03  0.17200000000E+03 0. -1.
         -6    1    1    2    0  501  0.34797902316E+03  0.10909218212E+03 -0.16764112834E+03  0.43666698142E+03  0.17200000000E+03 0.  1.
</event>
<event>
 4    1  0.3196149E-002  0.2154122E+03  0.7818608E-02  0.1137350E+00
          2   -1    0    0  502    0  0.00000000000E+00  0.00000000000E+00  0.34586408975E+03  0.34586408975E+03  0.00000000000E+00 0. -1.
         -2   -1    0    0    0  501 -0.00000000000E+00 -0.00000000000E+00 -0.19574351237E+03  0.19574351237E+03  0.00000000000E+00 0.  1.
          6    1    1    2  502    0  0.12821677789E+03  0.19464877442E+02  0.22695059872E+03  0.31290413523E+03  0.17200000000E+03 0. -1.
         -6    1    1    2    0  501 -0.12821677789E+03 -0.19464877442E+02 -0.76830021341E+02  0.22870346689E+03  0.17200000000E+03 0.  1.
</event>
<event>
 4    1  0.3196149E-002  0.1789829E+03  0.7818608E-02  0.1168791E+00
          2   -1    0    0  502    0  0.00000000000E+00  0.00000000000E+00  0.11133498090E+04  0.11133498090E+04  0.00000000000E+00 0. -1.
         -2   -1    0    0    0  501 -0.00000000000E+00 -0.00000000000E+00 -0.28773581248E+02  0.28773581248E+02  0.00000000000E+00 0.  1.
          6    1    1    2  502    0  0.49505048906E+02  0.35998877143E+00  0.54364824108E+03  0.57235329080E+03  0.17200000000E+03 0. -1.
         -6    1    1    2    0  501 -0.49505048906E+02 -0.35998877143E+00  0.54092798664E+03  0.56977009942E+03  0.17200000000E+03 0.  1.
</event>
<event>
 4    1  0.3196149E-002  0.2127412E+03  0.7818608E-02  0.1139413E+00
         -1   -1    0    0    0  501 -0.00000000000E+00  0.00000000000E+00  0.56683772383E+02  0.56683772383E+02  0.00000000000E+00 0.  1.
          1   -1    0    0  502    0  0.00000000000E+00 -0.00000000000E+00 -0.13363037902E+04  0.13363037902E+04  0.00000000000E+00 0. -1.
          6    1    1    2  502    0  0.10344487646E+03 -0.70526566054E+02 -0.10816846031E+04  0.11024066489E+04  0.17200000000E+03 0. -1.
         -6    1    1    2    0  501 -0.10344487646E+03  0.70526566054E+02 -0.19793541469E+03  0.29058091365E+03  0.17200000000E+03 0.  1.
</event>
<event>
 4    1  0.3196149E-002  0.2436530E+03  0.7818608E-02  0.1117383E+00
         -1   -1    0    0    0  501 -0.00000000000E+00  0.00000000000E+00  0.44600114181E+02  0.44600114181E+02  0.00000000000E+00 0.  1.
          1   -1    0    0  502    0  0.00000000000E+00 -0.00000000000E+00 -0.18398050046E+04  0.18398050046E+04  0.00000000000E+00 0. -1.
          6    1    1    2  502    0  0.85880705430E+02  0.14969072417E+03 -0.13930472158E+04  0.14141949490E+04  0.17200000000E+03 0. -1.
         -6    1    1    2    0  501 -0.85880705430E+02 -0.14969072417E+03 -0.40215767465E+03  0.47021016976E+03  0.17200000000E+03 0.  1.
</event>
<event>
 4    1  0.3196149E-002  0.2023773E+03  0.7818608E-02  0.1147749E+00
          1   -1    0    0  502    0  0.00000000000E+00  0.00000000000E+00  0.20900640101E+04  0.20900640101E+04  0.00000000000E+00 0. -1.
         -1   -1    0    0    0  501 -0.00000000000E+00 -0.00000000000E+00 -0.43956448811E+02  0.43956448811E+02  0.00000000000E+00 0.  1.
          6    1    1    2  502    0  0.81197275090E+02  0.69134553761E+02  0.18173843012E+04  0.18286175877E+04  0.17200000000E+03 0. -1.
         -6    1    1    2    0  501 -0.81197275090E+02 -0.69134553761E+02  0.22872326010E+03  0.30540287117E+03  0.17200000000E+03 0.  1.
</event>
<event>
 4    1  0.3196149E-002  0.2252580E+03  0.7818608E-02  0.1130023E+00
          1   -1    0    0  502    0  0.00000000000E+00  0.00000000000E+00  0.10184123676E+03  0.10184123676E+03  0.00000000000E+00 0. -1.
         -1   -1    0    0    0  501 -0.00000000000E+00 -0.00000000000E+00 -0.51118025038E+03  0.51118025038E+03  0.00000000000E+00 0.  1.
          6    1    1    2  502    0  0.13802511964E+03  0.45893582237E+02 -0.25344108316E+03  0.33907747960E+03  0.17200000000E+03 0. -1.
         -6    1    1    2    0  501 -0.13802511964E+03 -0.45893582237E+02 -0.15589793046E+03  0.27394400753E+03  0.17200000000E+03 0. -1.
</event>
<event>
 4    1  0.3196149E-002  0.2529600E+03  0.7818608E-02  0.1111448E+00
         -2   -1    0    0    0  501 -0.00000000000E+00  0.00000000000E+00  0.14184612221E+03  0.14184612221E+03  0.00000000000E+00 0.  1.
          2   -1    0    0  502    0  0.00000000000E+00 -0.00000000000E+00 -0.87435402461E+03  0.87435402461E+03  0.00000000000E+00 0. -1.
          6    1    1    2  502    0  0.13654086333E+03 -0.12554416174E+03 -0.71976180473E+03  0.76291926142E+03  0.17200000000E+03 0. -1.
         -6    1    1    2    0  501 -0.13654086333E+03  0.12554416174E+03 -0.12746097668E+02  0.25328088540E+03  0.17200000000E+03 0.  1.
</event>
<event>
 4    1  0.3196149E-002  0.2330693E+03  0.7818608E-02  0.1124498E+00
          1   -1    0    0  502    0  0.00000000000E+00  0.00000000000E+00  0.10081819154E+04  0.10081819154E+04  0.00000000000E+00 0. -1.
         -1   -1    0    0    0  501 -0.00000000000E+00 -0.00000000000E+00 -0.62683602360E+02  0.62683602360E+02  0.00000000000E+00 0.  1.
          6    1    1    2  502    0 -0.31170018251E+02 -0.15416134093E+03  0.27209543161E+03  0.35826974890E+03  0.17200000000E+03 0. -1.
         -6    1    1    2    0  501  0.31170018251E+02  0.15416134093E+03  0.67340288148E+03  0.71259576890E+03  0.17200000000E+03 0.  1.
</event>
<event>
 4    1  0.3196149E-002  0.2655243E+03  0.7818608E-02  0.1103869E+00
         -2   -1    0    0    0  501 -0.00000000000E+00  0.00000000000E+00  0.41546841296E+02  0.41546841296E+02  0.00000000000E+00 0.  1.
          2   -1    0    0  502    0  0.00000000000E+00 -0.00000000000E+00 -0.18459329299E+04  0.18459329299E+04  0.00000000000E+00 0. -1.
          6    1    1    2  502    0  0.18897737421E+03 -0.72157625366E+02 -0.11702971949E+04  0.12000411223E+04  0.17200000000E+03 0. -1.
         -6    1    1    2    0  501 -0.18897737421E+03  0.72157625366E+02 -0.63408889377E+03  0.68743864895E+03  0.17200000000E+03 0.  1.
</event>
<event>
 4    1  0.3196149E-002  0.6013712E+03  0.7818608E-02  0.9902565E-01
         -1   -1    0    0    0  501 -0.00000000000E+00  0.00000000000E+00  0.17679459279E+03  0.17679459279E+03  0.00000000000E+00 0.  1.
          1   -1    0    0  502    0  0.00000000000E+00 -0.00000000000E+00 -0.23225179024E+04  0.23225179024E+04  0.00000000000E+00 0. -1.
          6    1    1    2  502    0  0.36611375602E+03 -0.44499894036E+03 -0.15043835802E+04  0.16201287898E+04  0.17200000000E+03 0. -1.
         -6    1    1    2    0  501 -0.36611375602E+03  0.44499894036E+03 -0.64133972944E+03  0.87918370539E+03  0.17200000000E+03 0.  1.
</event>
<event>
 4    1  0.3196149E-002  0.2384740E+03  0.7818608E-02  0.1120814E+00
          2   -1    0    0  502    0  0.00000000000E+00  0.00000000000E+00  0.15283108993E+03  0.15283108993E+03  0.00000000000E+00 0. -1.
         -2   -1    0    0    0  501 -0.00000000000E+00 -0.00000000000E+00 -0.63202733742E+03  0.63202733742E+03  0.00000000000E+00 0.  1.
          6    1    1    2  502    0  0.17758911365E+02 -0.16422684324E+03  0.12060489354E+02  0.23877874775E+03  0.17200000000E+03 0. -1.
         -6    1    1    2    0  501 -0.17758911365E+02  0.16422684324E+03 -0.49125673685E+03  0.54607967960E+03  0.17200000000E+03 0.  1.
</event>
<event>
 4    1  0.3196149E-002  0.3215445E+03  0.7818608E-02  0.1074941E+00
         -1   -1    0    0    0  501 -0.00000000000E+00  0.00000000000E+00  0.21806277066E+03  0.21806277066E+03  0.00000000000E+00 0.  1.
          1   -1    0    0  502    0  0.00000000000E+00 -0.00000000000E+00 -0.58654302486E+03  0.58654302486E+03  0.00000000000E+00 0. -1.
          6    1    1    2  502    0 -0.25675406832E+03  0.88793262902E+02 -0.36035843721E+03  0.48295869223E+03  0.17200000000E+03 0. -1.
         -6    1    1    2    0  501  0.25675406832E+03 -0.88793262902E+02 -0.81218169879E+01  0.32164710328E+03  0.17200000000E+03 0.  1.
</event>
<event>
 4    1  0.3196149E-002  0.2495850E+03  0.7818608E-02  0.1113567E+00
         -1   -1    0    0    0  501 -0.00000000000E+00  0.00000000000E+00  0.23646246274E+03  0.23646246274E+03  0.00000000000E+00 0.  1.
          1   -1    0    0  502    0  0.00000000000E+00 -0.00000000000E+00 -0.10160149776E+04  0.10160149776E+04  0.00000000000E+00 0. -1.
          6    1    1    2  502    0 -0.43334640074E+02 -0.17558689875E+03 -0.92874799767E+03  0.96169927380E+03  0.17200000000E+03 0. -1.
         -6    1    1    2    0  501  0.43334640074E+02  0.17558689875E+03  0.14919548281E+03  0.29077816654E+03  0.17200000000E+03 0.  1.
</event>
<event>
 4    1  0.3196149E-002  0.3360971E+03  0.7818608E-02  0.1068471E+00
         -2   -1    0    0    0  501 -0.00000000000E+00  0.00000000000E+00  0.16094825369E+03  0.16094825369E+03  0.00000000000E+00 0.  1.
          2   -1    0    0  502    0  0.00000000000E+00 -0.00000000000E+00 -0.12021525421E+04  0.12021525421E+04  0.00000000000E+00 0. -1.
          6    1    1    2  502    0 -0.10808942046E+00 -0.28875117892E+03 -0.96028070300E+03  0.10173987830E+04  0.17200000000E+03 0. -1.
         -6    1    1    2    0  501  0.10808942046E+00  0.28875117892E+03 -0.80923585416E+02  0.34570201285E+03  0.17200000000E+03 0.  1.
</event>
<event>
 4    1  0.3196149E-002  0.2593987E+03  0.7818608E-02  0.1107505E+00
         -2   -1    0    0    0  501 -0.00000000000E+00  0.00000000000E+00  0.81289942027E+03  0.81289942027E+03  0.00000000000E+00 0.  1.
          2   -1    0    0  502    0  0.00000000000E+00 -0.00000000000E+00 -0.14707723820E+04  0.14707723820E+04  0.00000000000E+00 0. -1.
          6    1    1    2  502    0  0.16493902514E+03  0.10246372987E+03 -0.14381758985E+04  0.14613820900E+04  0.17200000000E+03 0. -1.
         -6    1    1    2    0  501 -0.16493902514E+03 -0.10246372987E+03  0.78030293671E+03  0.82228971232E+03  0.17200000000E+03 0.  1.
</event>
<event>
 4    1  0.3196149E-002  0.1735306E+03  0.7818608E-02  0.1174215E+00
         -1   -1    0    0    0  501 -0.00000000000E+00  0.00000000000E+00  0.84471064163E+01  0.84471064163E+01  0.00000000000E+00 0.  1.
          1   -1    0    0  502    0  0.00000000000E+00 -0.00000000000E+00 -0.40605177435E+04  0.40605177435E+04  0.00000000000E+00 0. -1.
          6    1    1    2  502    0  0.20368375684E+02  0.10677248202E+02 -0.27368359852E+04  0.27423318698E+04  0.17200000000E+03 0. -1.
         -6    1    1    2    0  501 -0.20368375684E+02 -0.10677248202E+02 -0.13152346519E+04  0.13266329801E+04  0.17200000000E+03 0.  1.
</event>
<event>
 4    1  0.3196149E-002  0.7474591E+03  0.7818608E-02  0.9639345E-01
          2   -1    0    0  502    0  0.00000000000E+00  0.00000000000E+00  0.30355976017E+04  0.30355976017E+04  0.00000000000E+00 0. -1.
         -2   -1    0    0    0  501 -0.00000000000E+00 -0.00000000000E+00 -0.34416450351E+03  0.34416450351E+03  0.00000000000E+00 0.  1.
          6    1    1    2  502    0 -0.53107371863E+03  0.49706320778E+03  0.24983504501E+04  0.26077672631E+04  0.17200000000E+03 0. -1.
         -6    1    1    2    0  501  0.53107371863E+03 -0.49706320778E+03  0.19308264804E+03  0.77199484203E+03  0.17200000000E+03 0.  1.
</event>
<event>
 4    1  0.3196149E-002  0.2151097E+03  0.7818608E-02  0.1137582E+00
         -2   -1    0    0    0  501 -0.00000000000E+00  0.00000000000E+00  0.27510914025E+03  0.27510914025E+03  0.00000000000E+00 0.  1.
          2   -1    0    0  502    0  0.00000000000E+00 -0.00000000000E+00 -0.20402915516E+03  0.20402915516E+03  0.00000000000E+00 0. -1.
          6    1    1    2  502    0  0.11639362128E+03  0.56042007551E+02  0.13593889270E+03  0.25446328661E+03  0.17200000000E+03 0.  1.
         -6    1    1    2    0  501 -0.11639362128E+03 -0.56042007551E+02 -0.64858907610E+02  0.22467500880E+03  0.17200000000E+03 0.  1.
</event>
<event>
 4    1  0.3196149E-002  0.4831228E+03  0.7818608E-02  0.1018280E+00
          1   -1    0    0  502    0  0.00000000000E+00  0.00000000000E+00  0.69731601044E+03  0.69731601044E+03  0.00000000000E+00 0. -1.
         -1   -1    0    0    0  501 -0.00000000000E+00 -0.00000000000E+00 -0.33484531413E+03  0.33484531413E+03  0.00000000000E+00 0.  1.
          6    1    1    2  502    0 -0.44296100912E+03 -0.87230725052E+02  0.17136878140E+03  0.51261575691E+03  0.17200000000E+03 0. -1.
         -6    1    1    2    0  501  0.44296100912E+03  0.87230725052E+02  0.19110191491E+03  0.51954556766E+03  0.17200000000E+03 0.  1.
</event>
<event>
 4    1  0.3196149E-002  0.2175353E+03  0.7818608E-02  0.1135734E+00
          1   -1    0    0  502    0  0.00000000000E+00  0.00000000000E+00  0.78501103537E+03  0.78501103537E+03  0.00000000000E+00 0. -1.
         -1   -1    0    0    0  501 -0.00000000000E+00 -0.00000000000E+00 -0.11535790247E+03  0.11535790247E+03  0.00000000000E+00 0.  1.
          6    1    1    2  502    0  0.13310444992E+03 -0.45607574857E+01  0.64589063950E+03  0.68153966377E+03  0.17200000000E+03 0. -1.
         -6    1    1    2    0  501 -0.13310444992E+03  0.45607574857E+01  0.23762493393E+02  0.21882927407E+03  0.17200000000E+03 0.  1.
</event>
<event>
 4    1  0.3196149E-002  0.1795636E+03  0.7818608E-02  0.1168226E+00
         -2   -1    0    0    0  501 -0.00000000000E+00  0.00000000000E+00  0.26781748606E+03  0.26781748606E+03  0.00000000000E+00 0.  1.
          2   -1    0    0  502    0  0.00000000000E+00 -0.00000000000E+00 -0.12155437899E+03  0.12155437899E+03  0.00000000000E+00 0. -1.
          6    1    1    2  502    0 -0.29342517322E+02 -0.42403904873E+02  0.92169887466E+02  0.20183746586E+03  0.17200000000E+03 0.  1.
         -6    1    1    2    0  501  0.29342517322E+02  0.42403904873E+02  0.54093219602E+02  0.18753439919E+03  0.17200000000E+03 0. -1.
</event>
<event>
 4    1  0.3196149E-002  0.2921260E+03  0.7818608E-02  0.1089244E+00
          2   -1    0    0  502    0  0.00000000000E+00  0.00000000000E+00  0.24318340226E+03  0.24318340226E+03  0.00000000000E+00 0. -1.
         -2   -1    0    0    0  501 -0.00000000000E+00 -0.00000000000E+00 -0.61855899010E+03  0.61855899010E+03  0.00000000000E+00 0.  1.
          6    1    1    2  502    0  0.16573445035E+03  0.16818351255E+03  0.95733614306E+02  0.30741263285E+03  0.17200000000E+03 0. -1.
         -6    1    1    2    0  501 -0.16573445035E+03 -0.16818351255E+03 -0.47110920215E+03  0.55432975951E+03  0.17200000000E+03 0.  1.
</event>
<event>
 4    1  0.3196149E-002  0.1787094E+03  0.7818608E-02  0.1169058E+00
          2   -1    0    0  502    0  0.00000000000E+00  0.00000000000E+00  0.33730267612E+03  0.33730267612E+03  0.00000000000E+00 0. -1.
         -2   -1    0    0    0  501 -0.00000000000E+00 -0.00000000000E+00 -0.11554159887E+03  0.11554159887E+03  0.00000000000E+00 0.  1.
          6    1    1    2  502    0 -0.47505351812E+02 -0.98123392770E+01  0.20708290346E+03  0.27353312296E+03  0.17200000000E+03 0. -1.
         -6    1    1    2    0  501  0.47505351812E+02  0.98123392770E+01  0.14678173792E+02  0.17931115202E+03  0.17200000000E+03 0.  1.
</event>
<event>
 4    1  0.3196149E-002  0.6408217E+03  0.7818608E-02  0.9824156E-01
         -2   -1    0    0    0  501 -0.00000000000E+00  0.00000000000E+00  0.15967975307E+03  0.15967975307E+03  0.00000000000E+00 0.  1.
          2   -1    0    0  502    0  0.00000000000E+00 -0.00000000000E+00 -0.35008464806E+04  0.35008464806E+04  0.00000000000E+00 0. -1.
          6    1    1    2  502    0 -0.33353510436E+03  0.51944472642E+03 -0.26134779298E+04  0.26908956463E+04  0.17200000000E+03 0. -1.
         -6    1    1    2    0  501  0.33353510436E+03 -0.51944472642E+03 -0.72768879774E+03  0.96963058739E+03  0.17200000000E+03 0.  1.
</event>
<event>
 4    1  0.3196149E-002  0.2278103E+03  0.7818608E-02  0.1128190E+00
         -2   -1    0    0    0  501 -0.00000000000E+00  0.00000000000E+00  0.56709251495E+02  0.56709251495E+02  0.00000000000E+00 0.  1.
          2   -1    0    0  502    0  0.00000000000E+00 -0.00000000000E+00 -0.19848569628E+04  0.19848569628E+04  0.00000000000E+00 0. -1.
          6    1    1    2  502    0 -0.18633649845E+02 -0.14821045734E+03 -0.17134519400E+04  0.17285297519E+04  0.17200000000E+03 0. -1.
         -6    1    1    2    0  501  0.18633649845E+02  0.14821045734E+03 -0.21469577135E+03  0.31303646242E+03  0.17200000000E+03 0.  1.
</event>
<event>
 4    1  0.3196149E-002  0.2691225E+03  0.7818608E-02  0.1101783E+00
          2   -1    0    0  502    0  0.00000000000E+00  0.00000000000E+00  0.30451020330E+04  0.30451020330E+04  0.00000000000E+00 0. -1.
         -2   -1    0    0    0  501 -0.00000000000E+00 -0.00000000000E+00 -0.37978088433E+02  0.37978088433E+02  0.00000000000E+00 0.  1.
          6    1    1    2  502    0 -0.10764789243E+03 -0.17679045939E+03  0.24459523038E+04  0.24607132315E+04  0.17200000000E+03 0. -1.
         -6    1    1    2    0  501  0.10764789243E+03  0.17679045939E+03  0.56117164083E+03  0.62236688999E+03  0.17200000000E+03 0.  1.
</event>
<event>
 4    1  0.3196149E-002  0.4045660E+03  0.7818608E-02  0.1042210E+00
          2   -1    0    0  502    0  0.00000000000E+00  0.00000000000E+00  0.31569206636E+03  0.31569206636E+03  0.00000000000E+00 0. -1.
         -2   -1    0    0    0  501 -0.00000000000E+00 -0.00000000000E+00 -0.60735470787E+03  0.60735470787E+03  0.00000000000E+00 0.  1.
          6    1    1    2  502    0 -0.29197582522E+03  0.22099719817E+03  0.30736259614E+02  0.40573188409E+03  0.17200000000E+03 0.  1.
         -6    1    1    2    0  501  0.29197582522E+03 -0.22099719817E+03 -0.32239890113E+03  0.51731489014E+03  0.17200000000E+03 0.  1.
</event>
<event>
 4    1  0.3196149E-002  0.1948967E+03  0.7818608E-02  0.1154118E+00
          1   -1    0    0  502    0  0.00000000000E+00  0.00000000000E+00  0.74894531077E+03  0.74894531077E+03  0.00000000000E+00 0. -1.
         -1   -1    0    0    0  501 -0.00000000000E+00 -0.00000000000E+00 -0.89451963984E+02  0.89451963984E+02  0.00000000000E+00 0.  1.
          6    1    1    2  502    0  0.20613626265E+02 -0.89307364295E+02  0.60559668113E+03  0.63618556027E+03  0.17200000000E+03 0. -1.
         -6    1    1    2    0  501 -0.20613626265E+02  0.89307364295E+02  0.53896665660E+02  0.20221171448E+03  0.17200000000E+03 0.  1.
</event>
<event>
 4    1  0.3196149E-002  0.3285892E+03  0.7818608E-02  0.1071763E+00
          1   -1    0    0  502    0  0.00000000000E+00  0.00000000000E+00  0.64487398358E+03  0.64487398358E+03  0.00000000000E+00 0. -1.
         -1   -1    0    0    0  501 -0.00000000000E+00 -0.00000000000E+00 -0.31620888386E+03  0.31620888386E+03  0.00000000000E+00 0.  1.
          6    1    1    2  502    0  0.85381124247E+02 -0.26664001229E+03  0.49395395135E+03  0.59326329618E+03  0.17200000000E+03 0. -1.
         -6    1    1    2    0  501 -0.85381124247E+02  0.26664001229E+03 -0.16528885163E+03  0.36781957126E+03  0.17200000000E+03 0.  1.
</event>
<event>
 4    1  0.3196149E-002  0.1725414E+03  0.7818608E-02  0.1175223E+00
          2   -1    0    0  502    0  0.00000000000E+00  0.00000000000E+00  0.55641775667E+03  0.55641775667E+03  0.00000000000E+00 0. -1.
         -2   -1    0    0    0  501 -0.00000000000E+00 -0.00000000000E+00 -0.59558393228E+02  0.59558393228E+02  0.00000000000E+00 0.  1.
          6    1    1    2  502    0 -0.47858797275E+01 -0.12792426212E+02  0.34662693233E+03  0.38719604987E+03  0.17200000000E+03 0. -1.
         -6    1    1    2    0  501  0.47858797275E+01  0.12792426212E+02  0.15023243111E+03  0.22878010003E+03  0.17200000000E+03 0.  1.
</event>
<event>
 4    1  0.3196149E-002  0.1875370E+03  0.7818608E-02  0.1160702E+00
          2   -1    0    0  502    0  0.00000000000E+00  0.00000000000E+00  0.19961643782E+03  0.19961643782E+03  0.00000000000E+00 0. -1.
         -2   -1    0    0    0  501 -0.00000000000E+00 -0.00000000000E+00 -0.18702101327E+03  0.18702101327E+03  0.00000000000E+00 0.  1.
          6    1    1    2  502    0 -0.22749921505E+00  0.74739985136E+02 -0.40228071601E+02  0.19180306275E+03  0.17200000000E+03 0.  1.
         -6    1    1    2    0  501  0.22749921505E+00 -0.74739985136E+02  0.52823496149E+02  0.19483438834E+03  0.17200000000E+03 0. -1.
</event>
<event>
 4    1  0.3196149E-002  0.3156224E+03  0.7818608E-02  0.1077682E+00
         -2   -1    0    0    0  501 -0.00000000000E+00  0.00000000000E+00  0.21679228362E+03  0.21679228362E+03  0.00000000000E+00 0.  1.
          2   -1    0    0  502    0  0.00000000000E+00 -0.00000000000E+00 -0.25970369002E+04  0.25970369002E+04  0.00000000000E+00 0. -1.
          6    1    1    2  502    0  0.26068136549E+03 -0.45592754226E+02 -0.24665164995E+04  0.24866284636E+04  0.17200000000E+03 0. -1.
         -6    1    1    2    0  501 -0.26068136549E+03  0.45592754226E+02  0.86271882907E+02  0.32720072025E+03  0.17200000000E+03 0.  1.
</event>
<event>
 4    1  0.3196149E-002  0.2437827E+03  0.7818608E-02  0.1117298E+00
          4   -1    0    0  502    0  0.00000000000E+00  0.00000000000E+00  0.63755795206E+02  0.63755795206E+02  0.00000000000E+00 0. -1.
         -4   -1    0    0    0  501 -0.00000000000E+00 -0.00000000000E+00 -0.94386757760E+03  0.94386757760E+03  0.00000000000E+00 0.  1.
          6    1    1    2  502    0 -0.10075471667E+03  0.14033711929E+03 -0.38392324773E+03  0.45478245363E+03  0.17200000000E+03 0. -1.
         -6    1    1    2    0  501  0.10075471667E+03 -0.14033711929E+03 -0.49618853466E+03  0.55284091917E+03  0.17200000000E+03 0.  1.
</event>
<event>
 4    1  0.3196149E-002  0.1858037E+03  0.7818608E-02  0.1162301E+00
         -2   -1    0    0    0  501 -0.00000000000E+00  0.00000000000E+00  0.13220536635E+03  0.13220536635E+03  0.00000000000E+00 0.  1.
          2   -1    0    0  502    0  0.00000000000E+00 -0.00000000000E+00 -0.49106844269E+03  0.49106844269E+03  0.00000000000E+00 0. -1.
          6    1    1    2  502    0  0.69422685015E+02  0.10931883655E+02 -0.39267809778E+03  0.43441812088E+03  0.17200000000E+03 0. -1.
         -6    1    1    2    0  501 -0.69422685015E+02 -0.10931883655E+02  0.33815021438E+02  0.18885568816E+03  0.17200000000E+03 0.  1.
</event>
<event>
 4    1  0.3196149E-002  0.2442378E+03  0.7818608E-02  0.1117001E+00
         -1   -1    0    0    0  501 -0.00000000000E+00  0.00000000000E+00  0.21450069878E+03  0.21450069878E+03  0.00000000000E+00 0.  1.
          1   -1    0    0  502    0  0.00000000000E+00 -0.00000000000E+00 -0.35953654265E+03  0.35953654265E+03  0.00000000000E+00 0. -1.
          6    1    1    2  502    0 -0.13976714168E+03  0.10263162761E+03 -0.20911925066E+03  0.32153221593E+03  0.17200000000E+03 0. -1.
         -6    1    1    2    0  501  0.13976714168E+03 -0.10263162761E+03  0.64083406790E+02  0.25250502551E+03  0.17200000000E+03 0.  1.
</event>
<event>
 4    1  0.3196149E-002  0.1754803E+03  0.7818608E-02  0.1172250E+00
         -1   -1    0    0    0  501 -0.00000000000E+00  0.00000000000E+00  0.23923463263E+03  0.23923463263E+03  0.00000000000E+00 0.  1.
          1   -1    0    0  502    0  0.00000000000E+00 -0.00000000000E+00 -0.13523951670E+03  0.13523951670E+03  0.00000000000E+00 0. -1.
          6    1    1    2  502    0 -0.95475573374E+01  0.33439134968E+02  0.10875010579E+02  0.17581694302E+03  0.17200000000E+03 0. -1.
         -6    1    1    2    0  501  0.95475573374E+01 -0.33439134968E+02  0.93120105354E+02  0.19865720631E+03  0.17200000000E+03 0.  1.
</event>
<event>
 4    1  0.3196149E-002  0.2091581E+03  0.7818608E-02  0.1142234E+00
         -3   -1    0    0    0  501 -0.00000000000E+00  0.00000000000E+00  0.12860670265E+03  0.12860670265E+03  0.00000000000E+00 0.  1.
          3   -1    0    0  502    0  0.00000000000E+00 -0.00000000000E+00 -0.75423526066E+03  0.75423526066E+03  0.00000000000E+00 0. -1.
          6    1    1    2  502    0 -0.45175958362E+02  0.11010111484E+03 -0.63988232067E+03  0.67319871287E+03  0.17200000000E+03 0. -1.
         -6    1    1    2    0  501  0.45175958362E+02 -0.11010111484E+03  0.14253762660E+02  0.20964325043E+03  0.17200000000E+03 0.  1.
</event>
<event>
 4    1  0.3196149E-002  0.2681721E+03  0.7818608E-02  0.1102330E+00
          2   -1    0    0  502    0  0.00000000000E+00  0.00000000000E+00  0.23833990213E+04  0.23833990213E+04  0.00000000000E+00 0. -1.
         -2   -1    0    0    0  501 -0.00000000000E+00 -0.00000000000E+00 -0.51069942751E+02  0.51069942751E+02  0.00000000000E+00 0.  1.
          6    1    1    2  502    0  0.66797715572E+02  0.19460296957E+03  0.19447825175E+04  0.19631849865E+04  0.17200000000E+03 0. -1.
         -6    1    1    2    0  501 -0.66797715572E+02 -0.19460296957E+03  0.38754656099E+03  0.47128397756E+03  0.17200000000E+03 0.  1.
</event>
<event>
 4    1  0.3196149E-002  0.1843416E+03  0.7818608E-02  0.1163666E+00
          2   -1    0    0  502    0  0.00000000000E+00  0.00000000000E+00  0.33910047505E+04  0.33910047505E+04  0.00000000000E+00 0. -1.
         -2   -1    0    0    0  501 -0.00000000000E+00 -0.00000000000E+00 -0.10358729356E+02  0.10358729356E+02  0.00000000000E+00 0.  1.
          6    1    1    2  502    0  0.66315146572E+02 -0.37480722047E+00  0.13833189580E+04  0.13955476268E+04  0.17200000000E+03 0.  1.
         -6    1    1    2    0  501 -0.66315146572E+02  0.37480722047E+00  0.19973270632E+04  0.20058158531E+04  0.17200000000E+03 0.  1.
</event>
<event>
 4    1  0.3196149E-002  0.5408713E+03  0.7818608E-02  0.1003629E+00
          2   -1    0    0  502    0  0.00000000000E+00  0.00000000000E+00  0.12676341451E+04  0.12676341451E+04  0.00000000000E+00 0. -1.
         -2   -1    0    0    0  501 -0.00000000000E+00 -0.00000000000E+00 -0.27615497166E+03  0.27615497166E+03  0.00000000000E+00 0.  1.
          6    1    1    2  502    0 -0.51277785039E+03 -0.40806495261E+01  0.80863588295E+03  0.97284827529E+03  0.17200000000E+03 0. -1.
         -6    1    1    2    0  501  0.51277785039E+03  0.40806495261E+01  0.18284329047E+03  0.57094084143E+03  0.17200000000E+03 0.  1.
</event>
<event>
 4    1  0.3196149E-002  0.1881022E+03  0.7818608E-02  0.1160184E+00
          1   -1    0    0  502    0  0.00000000000E+00  0.00000000000E+00  0.55119590306E+03  0.55119590306E+03  0.00000000000E+00 0. -1.
         -1   -1    0    0    0  501 -0.00000000000E+00 -0.00000000000E+00 -0.11192305779E+03  0.11192305779E+03  0.00000000000E+00 0.  1.
          6    1    1    2  502    0 -0.46260666629E+02 -0.60484569509E+02  0.43615823814E+03  0.47499099057E+03  0.17200000000E+03 0. -1.
         -6    1    1    2    0  501  0.46260666629E+02  0.60484569509E+02  0.31146071362E+01  0.18812797028E+03  0.17200000000E+03 0.  1.
</event>
<event>
 4    1  0.3196149E-002  0.1823426E+03  0.7818608E-02  0.1165555E+00
          3   -1    0    0  502    0  0.00000000000E+00  0.00000000000E+00  0.19428034838E+03  0.19428034838E+03  0.00000000000E+00 0. -1.
         -3   -1    0    0    0  501 -0.00000000000E+00 -0.00000000000E+00 -0.17659398046E+03  0.17659398046E+03  0.00000000000E+00 0.  1.
          6    1    1    2  502    0 -0.54891769167E+02 -0.25528596415E+02  0.41436748304E+02  0.18699149624E+03  0.17200000000E+03 0. -1.
         -6    1    1    2    0  501  0.54891769167E+02  0.25528596415E+02 -0.23750380384E+02  0.18388283260E+03  0.17200000000E+03 0.  1.
</event>
<event>
 4    1  0.3196149E-002  0.2323125E+03  0.7818608E-02  0.1125023E+00
         -1   -1    0    0    0  501 -0.00000000000E+00  0.00000000000E+00  0.20150004517E+03  0.20150004517E+03  0.00000000000E+00 0.  1.
          1   -1    0    0  502    0  0.00000000000E+00 -0.00000000000E+00 -0.33719187272E+03  0.33719187272E+03  0.00000000000E+00 0. -1.
          6    1    1    2  502    0  0.12286130257E+03  0.96385726337E+02 -0.19000093736E+03  0.30011575118E+03  0.17200000000E+03 0. -1.
         -6    1    1    2    0  501 -0.12286130257E+03 -0.96385726337E+02  0.54309109813E+02  0.23857616670E+03  0.17200000000E+03 0.  1.
</event>
<event>
 4    1  0.3196149E-002  0.1815627E+03  0.7818608E-02  0.1166299E+00
          2   -1    0    0  502    0  0.00000000000E+00  0.00000000000E+00  0.32631760321E+03  0.32631760321E+03  0.00000000000E+00 0. -1.
         -2   -1    0    0    0  501 -0.00000000000E+00 -0.00000000000E+00 -0.10267993114E+03  0.10267993114E+03  0.00000000000E+00 0.  1.
          6    1    1    2  502    0 -0.56585796927E+02  0.13382011162E+02  0.13908073233E+03  0.22871047362E+03  0.17200000000E+03 0. -1.
         -6    1    1    2    0  501  0.56585796927E+02 -0.13382011162E+02  0.84556939739E+02  0.20028706073E+03  0.17200000000E+03 0.  1.
</event>
<event>
 4    1  0.3196149E-002  0.2165018E+03  0.7818608E-02  0.1136518E+00
         -2   -1    0    0    0  501 -0.00000000000E+00  0.00000000000E+00  0.21431959706E+02  0.21431959706E+02  0.00000000000E+00 0.  1.
          2   -1    0    0  502    0  0.00000000000E+00 -0.00000000000E+00 -0.21908722397E+04  0.21908722397E+04  0.00000000000E+00 0. -1.
          6    1    1    2  502    0 -0.94390086452E+02 -0.91539745627E+02 -0.11308532014E+04  0.11513913221E+04  0.17200000000E+03 0.  1.
         -6    1    1    2    0  501  0.94390086452E+02  0.91539745627E+02 -0.10385870786E+04  0.10609128774E+04  0.17200000000E+03 0.  1.
</event>
<event>
 4    1  0.3196149E-002  0.2402588E+03  0.7818608E-02  0.1119621E+00
          2   -1    0    0  502    0  0.00000000000E+00  0.00000000000E+00  0.49848464995E+03  0.49848464995E+03  0.00000000000E+00 0. -1.
         -2   -1    0    0    0  501 -0.00000000000E+00 -0.00000000000E+00 -0.13605302826E+03  0.13605302826E+03  0.00000000000E+00 0.  1.
          6    1    1    2  502    0  0.81888109701E+01  0.16755068236E+03  0.58803993649E+02  0.24735035366E+03  0.17200000000E+03 0. -1.
         -6    1    1    2    0  501 -0.81888109701E+01 -0.16755068236E+03  0.30362762805E+03  0.38718732456E+03  0.17200000000E+03 0.  1.
</event>
<event>
 4    1  0.3196149E-002  0.2064637E+03  0.7818608E-02  0.1144397E+00
          2   -1    0    0  502    0  0.00000000000E+00  0.00000000000E+00  0.39504605860E+03  0.39504605860E+03  0.00000000000E+00 0. -1.
         -2   -1    0    0    0  501 -0.00000000000E+00 -0.00000000000E+00 -0.10842792132E+03  0.10842792132E+03  0.00000000000E+00 0.  1.
          6    1    1    2  502    0  0.14368732442E+02 -0.11329962172E+03  0.12581930351E+03  0.24178040014E+03  0.17200000000E+03 0. -1.
         -6    1    1    2    0  501 -0.14368732442E+02  0.11329962172E+03  0.16079883377E+03  0.26169357978E+03  0.17200000000E+03 0.  1.
</event>
<event>
 4    1  0.3196149E-002  0.3915660E+03  0.7818608E-02  0.1046740E+00
          1   -1    0    0  502    0  0.00000000000E+00  0.00000000000E+00  0.20912048722E+04  0.20912048722E+04  0.00000000000E+00 0. -1.
         -1   -1    0    0    0  501 -0.00000000000E+00 -0.00000000000E+00 -0.10039374320E+03  0.10039374320E+03  0.00000000000E+00 0.  1.
          6    1    1    2  502    0 -0.34986751898E+03  0.36505915908E+02  0.15644734023E+04  0.16127309104E+04  0.17200000000E+03 0. -1.
         -6    1    1    2    0  501  0.34986751898E+03 -0.36505915908E+02  0.42633772672E+03  0.57886770505E+03  0.17200000000E+03 0.  1.
</event>
<event>
 4    1  0.3196149E-002  0.5049591E+03  0.7818608E-02  0.1012493E+00
         -1   -1    0    0    0  501 -0.00000000000E+00  0.00000000000E+00  0.27945212902E+03  0.27945212902E+03  0.00000000000E+00 0.  1.
          1   -1    0    0  502    0  0.00000000000E+00 -0.00000000000E+00 -0.98156860900E+03  0.98156860900E+03  0.00000000000E+00 0. -1.
          6    1    1    2  502    0 -0.45820283001E+03 -0.12429757692E+03 -0.18373506934E+03  0.53734746371E+03  0.17200000000E+03 0.  1.
         -6    1    1    2    0  501  0.45820283001E+03  0.12429757692E+03 -0.51838141064E+03  0.72367327431E+03  0.17200000000E+03 0. -1.
</event>
<event>
 4    1  0.3196149E-002  0.1726220E+03  0.7818608E-02  0.1175141E+00
         -2   -1    0    0    0  501 -0.00000000000E+00  0.00000000000E+00  0.13511584219E+03  0.13511584219E+03  0.00000000000E+00 0.  1.
          2   -1    0    0  502    0  0.00000000000E+00 -0.00000000000E+00 -0.39678203506E+03  0.39678203506E+03  0.00000000000E+00 0. -1.
          6    1    1    2  502    0  0.14631560095E+02 -0.52422836905E+00 -0.30807966479E+03  0.35314506541E+03  0.17200000000E+03 0. -1.
         -6    1    1    2    0  501 -0.14631560095E+02  0.52422836905E+00  0.46413471917E+02  0.17875281184E+03  0.17200000000E+03 0.  1.
</event>
<event>
 4    1  0.3196149E-002  0.1964158E+03  0.7818608E-02  0.1152799E+00
         -2   -1    0    0    0  501 -0.00000000000E+00  0.00000000000E+00  0.29586325925E+02  0.29586325925E+02  0.00000000000E+00 0.  1.
          2   -1    0    0  502    0  0.00000000000E+00 -0.00000000000E+00 -0.13577139766E+04  0.13577139766E+04  0.00000000000E+00 0. -1.
          6    1    1    2  502    0 -0.60555245799E+02  0.72994686479E+02 -0.80209340149E+03  0.82579233876E+03  0.17200000000E+03 0. -1.
         -6    1    1    2    0  501  0.60555245799E+02 -0.72994686479E+02 -0.52603424914E+03  0.56150796372E+03  0.17200000000E+03 0.  1.
</event>
<event>
 4    1  0.3196149E-002  0.1762977E+03  0.7818608E-02  0.1171435E+00
         -1   -1    0    0    0  501 -0.00000000000E+00  0.00000000000E+00  0.42421236027E+03  0.42421236027E+03  0.00000000000E+00 0.  1.
          1   -1    0    0  502    0  0.00000000000E+00 -0.00000000000E+00 -0.13320887880E+03  0.13320887880E+03  0.00000000000E+00 0. -1.
          6    1    1    2  502    0 -0.15748153178E+02  0.35339513797E+02 -0.41459289844E+02  0.18110703542E+03  0.17200000000E+03 0. -1.
         -6    1    1    2    0  501  0.15748153178E+02 -0.35339513797E+02  0.33246277131E+03  0.37631420365E+03  0.17200000000E+03 0.  1.
</event>
<event>
 4    1  0.3196149E-002  0.2066738E+03  0.7818608E-02  0.1144227E+00
          2   -1    0    0  502    0  0.00000000000E+00  0.00000000000E+00  0.11832527478E+04  0.11832527478E+04  0.00000000000E+00 0. -1.
         -2   -1    0    0    0  501 -0.00000000000E+00 -0.00000000000E+00 -0.37042592930E+02  0.37042592930E+02  0.00000000000E+00 0.  1.
          6    1    1    2  502    0 -0.29550727584E+01 -0.11454838647E+03  0.67049427001E+03  0.70162428080E+03  0.17200000000E+03 0. -1.
         -6    1    1    2    0  501  0.29550727584E+01  0.11454838647E+03  0.47571588489E+03  0.51867105995E+03  0.17200000000E+03 0.  1.
</event>
<event>
 4    1  0.3196149E-002  0.2554466E+03  0.7818608E-02  0.1109910E+00
         -1   -1    0    0    0  501 -0.00000000000E+00  0.00000000000E+00  0.62153972949E+02  0.62153972949E+02  0.00000000000E+00 0.  1.
          1   -1    0    0  502    0  0.00000000000E+00 -0.00000000000E+00 -0.13418599945E+04  0.13418599945E+04  0.00000000000E+00 0. -1.
          6    1    1    2  502    0  0.12203815557E+03  0.14413754370E+03 -0.31237693603E+03  0.40352483576E+03  0.17200000000E+03 0. -1.
         -6    1    1    2    0  501 -0.12203815557E+03 -0.14413754370E+03 -0.96732908553E+03  0.10004891317E+04  0.17200000000E+03 0. -1.
</event>
<event>
 4    1  0.3196149E-002  0.5085583E+03  0.7818608E-02  0.1011569E+00
          2   -1    0    0  502    0  0.00000000000E+00  0.00000000000E+00  0.17691604116E+04  0.17691604116E+04  0.00000000000E+00 0. -1.
         -2   -1    0    0    0  501 -0.00000000000E+00 -0.00000000000E+00 -0.15755837240E+03  0.15755837240E+03  0.00000000000E+00 0.  1.
          6    1    1    2  502    0 -0.20998699105E+03 -0.43006165618E+03  0.10645855361E+04  0.11798194473E+04  0.17200000000E+03 0. -1.
         -6    1    1    2    0  501  0.20998699105E+03  0.43006165618E+03  0.54701650313E+03  0.74689933674E+03  0.17200000000E+03 0.  1.
</event>
<event>
 4    1  0.3196149E-002  0.5049994E+03  0.7818608E-02  0.1012482E+00
          2   -1    0    0  502    0  0.00000000000E+00  0.00000000000E+00  0.78417814790E+03  0.78417814790E+03  0.00000000000E+00 0. -1.
         -2   -1    0    0    0  501 -0.00000000000E+00 -0.00000000000E+00 -0.36943132735E+03  0.36943132735E+03  0.00000000000E+00 0.  1.
          6    1    1    2  502    0  0.46057469775E+03 -0.11537470520E+03  0.40693023191E+03  0.64854960369E+03  0.17200000000E+03 0. -1.
         -6    1    1    2    0  501 -0.46057469775E+03  0.11537470520E+03  0.78165886385E+01  0.50505987156E+03  0.17200000000E+03 0.  1.
</event>
<event>
 4    1  0.3196149E-002  0.4867922E+03  0.7818608E-02  0.1017285E+00
          1   -1    0    0  502    0  0.00000000000E+00  0.00000000000E+00  0.51877294393E+03  0.51877294393E+03  0.00000000000E+00 0. -1.
         -1   -1    0    0    0  501 -0.00000000000E+00 -0.00000000000E+00 -0.46893723477E+03  0.46893723477E+03  0.00000000000E+00 0.  1.
          6    1    1    2  502    0  0.25363222674E+03 -0.37822388349E+03 -0.54589568556E+02  0.48984347856E+03  0.17200000000E+03 0.  1.
         -6    1    1    2    0  501 -0.25363222674E+03  0.37822388349E+03  0.10442527771E+03  0.49786670015E+03  0.17200000000E+03 0. -1.
</event>
<event>
 4    1  0.3196149E-002  0.2320103E+03  0.7818608E-02  0.1125233E+00
          1   -1    0    0  502    0  0.00000000000E+00  0.00000000000E+00  0.23166932967E+03  0.23166932967E+03  0.00000000000E+00 0. -1.
         -1   -1    0    0    0  501 -0.00000000000E+00 -0.00000000000E+00 -0.24258714048E+03  0.24258714048E+03  0.00000000000E+00 0.  1.
          6    1    1    2  502    0  0.13035468184E+03 -0.85161187477E+02  0.43249272753E+02  0.23600692897E+03  0.17200000000E+03 0. -1.
         -6    1    1    2    0  501 -0.13035468184E+03  0.85161187477E+02 -0.54167083567E+02  0.23824954118E+03  0.17200000000E+03 0.  1.
</event>
<event>
 4    1  0.3196149E-002  0.1899540E+03  0.7818608E-02  0.1158503E+00
          2   -1    0    0  502    0  0.00000000000E+00  0.00000000000E+00  0.42466648548E+04  0.42466648548E+04  0.00000000000E+00 0. -1.
         -2   -1    0    0    0  501 -0.00000000000E+00 -0.00000000000E+00 -0.12510300158E+02  0.12510300158E+02  0.00000000000E+00 0.  1.
          6    1    1    2  502    0 -0.24209714090E+02  0.76892148716E+02  0.33233077017E+04  0.33287319798E+04  0.17200000000E+03 0. -1.
         -6    1    1    2    0  501  0.24209714090E+02 -0.76892148716E+02  0.91084685296E+03  0.93044317523E+03  0.17200000000E+03 0.  1.
</event>
<event>
 4    1  0.3196149E-002  0.1783633E+03  0.7818608E-02  0.1169397E+00
         -2   -1    0    0    0  501 -0.00000000000E+00  0.00000000000E+00  0.77875493916E+02  0.77875493916E+02  0.00000000000E+00 0.  1.
          2   -1    0    0  502    0  0.00000000000E+00 -0.00000000000E+00 -0.41071064770E+03  0.41071064770E+03  0.00000000000E+00 0. -1.
          6    1    1    2  502    0  0.47105991394E+02  0.32385945340E+01 -0.14856393175E+03  0.23213079231E+03  0.17200000000E+03 0.  1.
         -6    1    1    2    0  501 -0.47105991394E+02 -0.32385945340E+01 -0.18427122203E+03  0.25645534931E+03  0.17200000000E+03 0. -1.
</event>
<event>
 4    1  0.3196149E-002  0.4039800E+03  0.7818608E-02  0.1042410E+00
          1   -1    0    0  502    0  0.00000000000E+00  0.00000000000E+00  0.12897387679E+04  0.12897387679E+04  0.00000000000E+00 0. -1.
         -1   -1    0    0    0  501 -0.00000000000E+00 -0.00000000000E+00 -0.13944494479E+03  0.13944494479E+03  0.00000000000E+00 0.  1.
          6    1    1    2  502    0 -0.35906258612E+03  0.68482576391E+02  0.35773489954E+03  0.53960546918E+03  0.17200000000E+03 0. -1.
         -6    1    1    2    0  501  0.35906258612E+03 -0.68482576391E+02  0.79255892360E+03  0.88957824355E+03  0.17200000000E+03 0.  1.
</event>
<event>
 4    1  0.3196149E-002  0.7237636E+03  0.7818608E-02  0.9677435E-01
          1   -1    0    0  502    0  0.00000000000E+00  0.00000000000E+00  0.89872399603E+03  0.89872399603E+03  0.00000000000E+00 0. -1.
         -1   -1    0    0    0  501 -0.00000000000E+00 -0.00000000000E+00 -0.58519197220E+03  0.58519197220E+03  0.00000000000E+00 0.  1.
          6    1    1    2  502    0  0.50532372680E+03  0.48877153523E+03  0.10996688166E+03  0.73206994036E+03  0.17200000000E+03 0. -1.
         -6    1    1    2    0  501 -0.50532372680E+03 -0.48877153523E+03  0.20356514217E+03  0.75184602787E+03  0.17200000000E+03 0.  1.
</event>
<event>
 4    1  0.3196149E-002  0.8882018E+03  0.7818608E-02  0.9440451E-01
          2   -1    0    0  502    0  0.00000000000E+00  0.00000000000E+00  0.51746834756E+03  0.51746834756E+03  0.00000000000E+00 0. -1.
         -2   -1    0    0    0  501 -0.00000000000E+00 -0.00000000000E+00 -0.17390100128E+04  0.17390100128E+04  0.00000000000E+00 0.  1.
          6    1    1    2  502    0 -0.52149483714E+03  0.69811284955E+03 -0.21455572119E+03  0.91374863796E+03  0.17200000000E+03 0. -1.
         -6    1    1    2    0  501  0.52149483714E+03 -0.69811284955E+03 -0.10069859440E+04  0.13427297224E+04  0.17200000000E+03 0.  1.
</event>
<event>
 4    1  0.3196149E-002  0.8151308E+03  0.7818608E-02  0.9538371E-01
          1   -1    0    0  502    0  0.00000000000E+00  0.00000000000E+00  0.21342765826E+04  0.21342765826E+04  0.00000000000E+00 0. -1.
         -1   -1    0    0    0  501 -0.00000000000E+00 -0.00000000000E+00 -0.42214402007E+03  0.42214402007E+03  0.00000000000E+00 0.  1.
          6    1    1    2  502    0  0.64802377140E+03 -0.46359395287E+03  0.15109939995E+04  0.17168404201E+04  0.17200000000E+03 0. -1.
         -6    1    1    2    0  501 -0.64802377140E+03  0.46359395287E+03  0.20113856299E+03  0.83958018257E+03  0.17200000000E+03 0.  1.
</event>
<event>
 4    1  0.3196149E-002  0.4399613E+03  0.7818608E-02  0.1030759E+00
         -2   -1    0    0    0  501 -0.00000000000E+00  0.00000000000E+00  0.11298607392E+03  0.11298607392E+03  0.00000000000E+00 0.  1.
          2   -1    0    0  502    0  0.00000000000E+00 -0.00000000000E+00 -0.25329539538E+04  0.25329539538E+04  0.00000000000E+00 0. -1.
          6    1    1    2  502    0  0.25634380024E+03 -0.31348021145E+03 -0.19626151569E+04  0.20113240020E+04  0.17200000000E+03 0. -1.
         -6    1    1    2    0  501 -0.25634380024E+03  0.31348021145E+03 -0.45735272295E+03  0.63461602570E+03  0.17200000000E+03 0.  1.
</event>
<event>
 4    1  0.3196149E-002  0.1914117E+03  0.7818608E-02  0.1157194E+00
         -2   -1    0    0    0  501 -0.00000000000E+00  0.00000000000E+00  0.24966512178E+02  0.24966512178E+02  0.00000000000E+00 0.  1.
          2   -1    0    0  502    0  0.00000000000E+00 -0.00000000000E+00 -0.22399701680E+04  0.22399701680E+04  0.00000000000E+00 0. -1.
          6    1    1    2  502    0  0.60076411814E+02 -0.58696485148E+02 -0.44246647995E+03  0.48209442904E+03  0.17200000000E+03 0.  1.
         -6    1    1    2    0  501 -0.60076411814E+02  0.58696485148E+02 -0.17725371759E+04  0.17828422512E+04  0.17200000000E+03 0. -1.
</event>
<event>
 4    1  0.3196149E-002  0.3939420E+03  0.7818608E-02  0.1045898E+00
          1   -1    0    0  502    0  0.00000000000E+00  0.00000000000E+00  0.89905320045E+03  0.89905320045E+03  0.00000000000E+00 0. -1.
         -1   -1    0    0    0  501 -0.00000000000E+00 -0.00000000000E+00 -0.17453324920E+03  0.17453324920E+03  0.00000000000E+00 0.  1.
          6    1    1    2  502    0  0.33065381895E+03 -0.12757100475E+03  0.41853168399E+03  0.57476871848E+03  0.17200000000E+03 0. -1.
         -6    1    1    2    0  501 -0.33065381895E+03  0.12757100475E+03  0.30598826726E+03  0.49881773118E+03  0.17200000000E+03 0.  1.
</event>
<event>
 4    1  0.3196149E-002  0.1806068E+03  0.7818608E-02  0.1167217E+00
         -2   -1    0    0    0  501 -0.00000000000E+00  0.00000000000E+00  0.28331518890E+02  0.28331518890E+02  0.00000000000E+00 0.  1.
          2   -1    0    0  502    0  0.00000000000E+00 -0.00000000000E+00 -0.19518994371E+04  0.19518994371E+04  0.00000000000E+00 0. -1.
          6    1    1    2  502    0 -0.17575798820E+02  0.52210307928E+02 -0.15958837595E+04  0.16060709196E+04  0.17200000000E+03 0. -1.
         -6    1    1    2    0  501  0.17575798820E+02 -0.52210307928E+02 -0.32768415870E+03  0.37416003637E+03  0.17200000000E+03 0.  1.
</event>
<event>
 4    1  0.3196149E-002  0.6546730E+03  0.7818608E-02  0.9798050E-01
          2   -1    0    0  502    0  0.00000000000E+00  0.00000000000E+00  0.90604333024E+03  0.90604333024E+03  0.00000000000E+00 0. -1.
         -2   -1    0    0    0  501 -0.00000000000E+00 -0.00000000000E+00 -0.47518347655E+03  0.47518347655E+03  0.00000000000E+00 0.  1.
          6    1    1    2  502    0  0.63155472127E+03 -0.12304634490E+02  0.16907069100E+03  0.67615210459E+03  0.17200000000E+03 0. -1.
         -6    1    1    2    0  501 -0.63155472127E+03  0.12304634490E+02  0.26178916269E+03  0.70507470220E+03  0.17200000000E+03 0.  1.
</event>
<event>
 4    1  0.3196149E-002  0.2198844E+03  0.7818608E-02  0.1133969E+00
          1   -1    0    0  502    0  0.00000000000E+00  0.00000000000E+00  0.18199282373E+04  0.18199282373E+04  0.00000000000E+00 0. -1.
         -1   -1    0    0    0  501 -0.00000000000E+00 -0.00000000000E+00 -0.99675827576E+02  0.99675827576E+02  0.00000000000E+00 0.  1.
          6    1    1    2  502    0  0.11043002969E+03 -0.81057696481E+02  0.16821286424E+04  0.16964391858E+04  0.17200000000E+03 0. -1.
         -6    1    1    2    0  501 -0.11043002969E+03  0.81057696481E+02  0.38123767345E+02  0.22316487907E+03  0.17200000000E+03 0.  1.
</event>
<event>
 4    1  0.3196149E-002  0.3198235E+03  0.7818608E-02  0.1075731E+00
         -1   -1    0    0    0  501 -0.00000000000E+00  0.00000000000E+00  0.31438519200E+03  0.31438519200E+03  0.00000000000E+00 0.  1.
          1   -1    0    0  502    0  0.00000000000E+00 -0.00000000000E+00 -0.32729531946E+03  0.32729531946E+03  0.00000000000E+00 0. -1.
          6    1    1    2  502    0 -0.24877346553E+03 -0.10399440857E+03  0.18242600037E+02  0.32034335738E+03  0.17200000000E+03 0.  1.
         -6    1    1    2    0  501  0.24877346553E+03  0.10399440857E+03 -0.31152727502E+02  0.32133715408E+03  0.17200000000E+03 0. -1.
</event>
<event>
 4    1  0.3196149E-002  0.9432755E+03  0.7818608E-02  0.9373045E-01
          1   -1    0    0  502    0  0.00000000000E+00  0.00000000000E+00  0.27530707743E+04  0.27530707743E+04  0.00000000000E+00 0. -1.
         -1   -1    0    0    0  501 -0.00000000000E+00 -0.00000000000E+00 -0.82792328686E+03  0.82792328686E+03  0.00000000000E+00 0.  1.
          6    1    1    2  502    0 -0.59201546287E+03  0.71393439887E+03  0.23605794783E+04  0.25420668968E+04  0.17200000000E+03 0. -1.
         -6    1    1    2    0  501  0.59201546287E+03 -0.71393439887E+03 -0.43543199090E+03  0.10389271644E+04  0.17200000000E+03 0.  1.
</event>
<event>
 4    1  0.3196149E-002  0.1265090E+04  0.7818608E-02  0.9057716E-01
         -2   -1    0    0    0  501 -0.00000000000E+00  0.00000000000E+00  0.15587366607E+04  0.15587366607E+04  0.00000000000E+00 0.  1.
          2   -1    0    0  502    0  0.00000000000E+00 -0.00000000000E+00 -0.11842838571E+04  0.11842838571E+04  0.00000000000E+00 0. -1.
          6    1    1    2  502    0  0.14773901589E+03  0.12446053788E+04 -0.31296932859E+03  0.13032279795E+04  0.17200000000E+03 0. -1.
         -6    1    1    2    0  501 -0.14773901589E+03 -0.12446053788E+04  0.68742213214E+03  0.14397925384E+04  0.17200000000E+03 0.  1.
</event>
<event>
 4    1  0.3196149E-002  0.3265820E+03  0.7818608E-02  0.1072659E+00
          1   -1    0    0  502    0  0.00000000000E+00  0.00000000000E+00  0.26585682414E+03  0.26585682414E+03  0.00000000000E+00 0. -1.
         -1   -1    0    0    0  501 -0.00000000000E+00 -0.00000000000E+00 -0.19797774581E+04  0.19797774581E+04  0.00000000000E+00 0.  1.
          6    1    1    2  502    0 -0.20487199306E+03  0.18734799049E+03  0.14566086608E+03  0.35759319203E+03  0.17200000000E+03 0. -1.
         -6    1    1    2    0  501  0.20487199306E+03 -0.18734799049E+03 -0.18595815000E+04  0.18880410902E+04  0.17200000000E+03 0.  1.
</event>
<event>
 4    1  0.3196149E-002  0.2631263E+03  0.7818608E-02  0.1105279E+00
         -2   -1    0    0    0  501 -0.00000000000E+00  0.00000000000E+00  0.86140761396E+02  0.86140761396E+02  0.00000000000E+00 0.  1.
          2   -1    0    0  502    0  0.00000000000E+00 -0.00000000000E+00 -0.11172909488E+04  0.11172909488E+04  0.00000000000E+00 0. -1.
          6    1    1    2  502    0 -0.18497939558E+03  0.73716293552E+02 -0.83432994390E+03  0.87483822734E+03  0.17200000000E+03 0. -1.
         -6    1    1    2    0  501  0.18497939558E+03 -0.73716293552E+02 -0.19682024350E+03  0.32859348285E+03  0.17200000000E+03 0.  1.
</event>
<event>
 4    1  0.3196149E-002  0.2034255E+03  0.7818608E-02  0.1146881E+00
          2   -1    0    0  502    0  0.00000000000E+00  0.00000000000E+00  0.89467116950E+03  0.89467116950E+03  0.00000000000E+00 0. -1.
         -2   -1    0    0    0  501 -0.00000000000E+00 -0.00000000000E+00 -0.15370452926E+03  0.15370452926E+03  0.00000000000E+00 0.  1.
          6    1    1    2  502    0 -0.99084042281E+02  0.44500475764E+02  0.80875994087E+03  0.83395118666E+03  0.17200000000E+03 0. -1.
         -6    1    1    2    0  501  0.99084042281E+02 -0.44500475764E+02 -0.67793300623E+02  0.21442451210E+03  0.17200000000E+03 0.  1.
</event>
<event>
 4    1  0.3196149E-002  0.2582978E+03  0.7818608E-02  0.1108170E+00
          2   -1    0    0  502    0  0.00000000000E+00  0.00000000000E+00  0.99328383081E+03  0.99328383081E+03  0.00000000000E+00 0. -1.
         -2   -1    0    0    0  501 -0.00000000000E+00 -0.00000000000E+00 -0.81022185083E+02  0.81022185083E+02  0.00000000000E+00 0.  1.
          6    1    1    2  502    0  0.15873985614E+03  0.10924939153E+03  0.67824311448E+03  0.72576269800E+03  0.17200000000E+03 0. -1.
         -6    1    1    2    0  501 -0.15873985614E+03 -0.10924939153E+03  0.23401853125E+03  0.34854331789E+03  0.17200000000E+03 0.  1.
</event>
<event>
 4    1  0.3196149E-002  0.2429227E+03  0.7818608E-02  0.1117861E+00
         -2   -1    0    0    0  501 -0.00000000000E+00  0.00000000000E+00  0.48395747920E+02  0.48395747920E+02  0.00000000000E+00 0.  1.
          2   -1    0    0  502    0  0.00000000000E+00 -0.00000000000E+00 -0.16950859985E+04  0.16950859985E+04  0.00000000000E+00 0. -1.
          6    1    1    2  502    0 -0.17146423777E+03  0.52402840900E+01 -0.12851661472E+04  0.13079233430E+04  0.17200000000E+03 0. -1.
         -6    1    1    2    0  501  0.17146423777E+03 -0.52402840900E+01 -0.36152410338E+03  0.43555840336E+03  0.17200000000E+03 0. -1.
</event>
<event>
 4    1  0.3196149E-002  0.1818357E+03  0.7818608E-02  0.1166038E+00
         -2   -1    0    0    0  501 -0.00000000000E+00  0.00000000000E+00  0.46053947076E+02  0.46053947076E+02  0.00000000000E+00 0.  1.
          2   -1    0    0  502    0  0.00000000000E+00 -0.00000000000E+00 -0.74228726876E+03  0.74228726876E+03  0.00000000000E+00 0. -1.
          6    1    1    2  502    0  0.44398481551E+02 -0.38845639918E+02 -0.41949677418E+03  0.45721084026E+03  0.17200000000E+03 0. -1.
         -6    1    1    2    0  501 -0.44398481551E+02  0.38845639918E+02 -0.27673654750E+03  0.33113037558E+03  0.17200000000E+03 0.  1.
</event>
<event>
 4    1  0.3196149E-002  0.2321283E+03  0.7818608E-02  0.1125151E+00
          2   -1    0    0  502    0  0.00000000000E+00  0.00000000000E+00  0.26807521111E+04  0.26807521111E+04  0.00000000000E+00 0. -1.
         -2   -1    0    0    0  501 -0.00000000000E+00 -0.00000000000E+00 -0.12077493224E+03  0.12077493224E+03  0.00000000000E+00 0.  1.
          6    1    1    2  502    0  0.84891950990E+02  0.13073989353E+03  0.25588890289E+04  0.25693961596E+04  0.17200000000E+03 0. -1.
         -6    1    1    2    0  501 -0.84891950990E+02 -0.13073989353E+03  0.10881500141E+01  0.23213088371E+03  0.17200000000E+03 0.  1.
</event>
<event>
 4    1  0.3196149E-002  0.2192976E+03  0.7818608E-02  0.1134408E+00
          2   -1    0    0  502    0  0.00000000000E+00  0.00000000000E+00  0.87655242294E+03  0.87655242294E+03  0.00000000000E+00 0. -1.
         -2   -1    0    0    0  501 -0.00000000000E+00 -0.00000000000E+00 -0.56449513097E+02  0.56449513097E+02  0.00000000000E+00 0.  1.
          6    1    1    2  502    0  0.98255518510E+02 -0.94091935695E+02  0.48822604658E+03  0.53521594879E+03  0.17200000000E+03 0.  1.
         -6    1    1    2    0  501 -0.98255518510E+02  0.94091935695E+02  0.33187686326E+03  0.39778598724E+03  0.17200000000E+03 0.  1.
</event>
<event>
 4    1  0.3196149E-002  0.4560042E+03  0.7818608E-02  0.1025946E+00
          2   -1    0    0  502    0  0.00000000000E+00  0.00000000000E+00  0.19791414108E+04  0.19791414108E+04  0.00000000000E+00 0. -1.
         -2   -1    0    0    0  501 -0.00000000000E+00 -0.00000000000E+00 -0.10636408512E+03  0.10636408512E+03  0.00000000000E+00 0.  1.
          6    1    1    2  502    0  0.31251073235E+03  0.28406498895E+03  0.82117983251E+03  0.93929558345E+03  0.17200000000E+03 0.  1.
         -6    1    1    2    0  501 -0.31251073235E+03 -0.28406498895E+03  0.10515974932E+04  0.11462099125E+04  0.17200000000E+03 0.  1.
</event>
<event>
 4    1  0.3196149E-002  0.3213284E+03  0.7818608E-02  0.1075040E+00
         -1   -1    0    0    0  501 -0.00000000000E+00  0.00000000000E+00  0.16113899527E+03  0.16113899527E+03  0.00000000000E+00 0.  1.
          1   -1    0    0  502    0  0.00000000000E+00 -0.00000000000E+00 -0.76057454174E+03  0.76057454174E+03  0.00000000000E+00 0. -1.
          6    1    1    2  502    0 -0.25520357688E+03  0.92407273693E+02 -0.48263040068E+03  0.57981382662E+03  0.17200000000E+03 0. -1.
         -6    1    1    2    0  501  0.25520357688E+03 -0.92407273693E+02 -0.11680514580E+03  0.34189971040E+03  0.17200000000E+03 0.  1.
</event>
<event>
 4    1  0.3196149E-002  0.2170553E+03  0.7818608E-02  0.1136098E+00
         -2   -1    0    0    0  501 -0.00000000000E+00  0.00000000000E+00  0.11022578470E+03  0.11022578470E+03  0.00000000000E+00 0.  1.
          2   -1    0    0  502    0  0.00000000000E+00 -0.00000000000E+00 -0.12971679957E+04  0.12971679957E+04  0.00000000000E+00 0. -1.
          6    1    1    2  502    0  0.10068550665E+03 -0.85973544454E+02 -0.11696847265E+04  0.11896534710E+04  0.17200000000E+03 0. -1.
         -6    1    1    2    0  501 -0.10068550665E+03  0.85973544454E+02 -0.17257484534E+02  0.21774030947E+03  0.17200000000E+03 0.  1.
</event>
<event>
 4    1  0.3196149E-002  0.1839187E+03  0.7818608E-02  0.1164064E+00
         -2   -1    0    0    0  501 -0.00000000000E+00  0.00000000000E+00  0.42534275577E+02  0.42534275577E+02  0.00000000000E+00 0.  1.
          2   -1    0    0  502    0  0.00000000000E+00 -0.00000000000E+00 -0.17906539813E+04  0.17906539813E+04  0.00000000000E+00 0. -1.
          6    1    1    2  502    0  0.64090476446E+02 -0.11596994575E+02 -0.15574478513E+04  0.15682697118E+04  0.17200000000E+03 0. -1.
         -6    1    1    2    0  501 -0.64090476446E+02  0.11596994575E+02 -0.19067185443E+03  0.26491854508E+03  0.17200000000E+03 0.  1.
</event>
<event>
 4    1  0.3196149E-002  0.2214915E+03  0.7818608E-02  0.1132776E+00
         -3   -1    0    0    0  501 -0.00000000000E+00  0.00000000000E+00  0.62559154299E+03  0.62559154299E+03  0.00000000000E+00 0.  1.
          3   -1    0    0  502    0  0.00000000000E+00 -0.00000000000E+00 -0.81080397589E+02  0.81080397589E+02  0.00000000000E+00 0. -1.
          6    1    1    2  502    0  0.10225435424E+03  0.94966052867E+02  0.20824475590E+03  0.30401378672E+03  0.17200000000E+03 0. -1.
         -6    1    1    2    0  501 -0.10225435424E+03 -0.94966052867E+02  0.33626638950E+03  0.40265815386E+03  0.17200000000E+03 0.  1.
</event>
<event>
 4    1  0.3196149E-002  0.2235764E+03  0.7818608E-02  0.1131244E+00
         -1   -1    0    0    0  501 -0.00000000000E+00  0.00000000000E+00  0.50329636067E+03  0.50329636067E+03  0.00000000000E+00 0.  1.
          1   -1    0    0  502    0  0.00000000000E+00 -0.00000000000E+00 -0.12193422476E+03  0.12193422476E+03  0.00000000000E+00 0. -1.
          6    1    1    2  502    0  0.12471983880E+03 -0.69623185340E+02  0.32531568396E+03  0.39473626684E+03  0.17200000000E+03 0.  1.
         -6    1    1    2    0  501 -0.12471983880E+03  0.69623185340E+02  0.56046451956E+02  0.23049431859E+03  0.17200000000E+03 0. -1.
</event>
<event>
 4    1  0.3196149E-002  0.2035402E+03  0.7818608E-02  0.1146786E+00
         -2   -1    0    0    0  501 -0.00000000000E+00  0.00000000000E+00  0.23031132411E+02  0.23031132411E+02  0.00000000000E+00 0.  1.
          2   -1    0    0  502    0  0.00000000000E+00 -0.00000000000E+00 -0.21915164479E+04  0.21915164479E+04  0.00000000000E+00 0. -1.
          6    1    1    2  502    0 -0.93090799826E+02  0.56380249387E+02 -0.15529661395E+04  0.15662478922E+04  0.17200000000E+03 0. -1.
         -6    1    1    2    0  501  0.93090799826E+02 -0.56380249387E+02 -0.61551917598E+03  0.64829968806E+03  0.17200000000E+03 0.  1.
</event>
<event>
 4    1  0.3196149E-002  0.2136665E+03  0.7818608E-02  0.1138695E+00
          2   -1    0    0  502    0  0.00000000000E+00  0.00000000000E+00  0.39146163181E+03  0.39146163181E+03  0.00000000000E+00 0. -1.
         -2   -1    0    0    0  501 -0.00000000000E+00 -0.00000000000E+00 -0.18419332265E+03  0.18419332265E+03  0.00000000000E+00 0.  1.
          6    1    1    2  502    0 -0.20079089362E+02 -0.12516475782E+03  0.27796476996E+03  0.35059634876E+03  0.17200000000E+03 0. -1.
         -6    1    1    2    0  501  0.20079089362E+02  0.12516475782E+03 -0.70696460794E+02  0.22505860570E+03  0.17200000000E+03 0.  1.
</event>
<event>
 4    1  0.3196149E-002  0.2530220E+03  0.7818608E-02  0.1111410E+00
          2   -1    0    0  502    0  0.00000000000E+00  0.00000000000E+00  0.25720329558E+04  0.25720329558E+04  0.00000000000E+00 0. -1.
         -2   -1    0    0    0  501 -0.00000000000E+00 -0.00000000000E+00 -0.24907362973E+02  0.24907362973E+02  0.00000000000E+00 0.  1.
          6    1    1    2  502    0 -0.18347849720E+03  0.27780684587E+02  0.13069809085E+04  0.13312472425E+04  0.17200000000E+03 0. -1.
         -6    1    1    2    0  501  0.18347849720E+03 -0.27780684587E+02  0.12401446843E+04  0.12656930763E+04  0.17200000000E+03 0.  1.
</event>
<event>
 4    1  0.3196149E-002  0.1816708E+03  0.7818608E-02  0.1166196E+00
         -1   -1    0    0    0  501 -0.00000000000E+00  0.00000000000E+00  0.24317908309E+03  0.24317908309E+03  0.00000000000E+00 0.  1.
          1   -1    0    0  502    0  0.00000000000E+00 -0.00000000000E+00 -0.14237874434E+03  0.14237874434E+03  0.00000000000E+00 0. -1.
          6    1    1    2  502    0 -0.15397193779E+02  0.56419947035E+02  0.92090044387E+02  0.20367832549E+03  0.17200000000E+03 0.  1.
         -6    1    1    2    0  501  0.15397193779E+02 -0.56419947035E+02  0.87102943637E+01  0.18187950194E+03  0.17200000000E+03 0. -1.
</event>
<event>
 4    1  0.3196149E-002  0.1778663E+03  0.7818608E-02  0.1169884E+00
         -2   -1    0    0    0  501 -0.00000000000E+00  0.00000000000E+00  0.70679923008E+02  0.70679923008E+02  0.00000000000E+00 0.  1.
          2   -1    0    0  502    0  0.00000000000E+00 -0.00000000000E+00 -0.44775101076E+03  0.44775101076E+03  0.00000000000E+00 0. -1.
          6    1    1    2  502    0  0.42153767488E+02 -0.16597617230E+02 -0.18379465652E+03  0.25576727073E+03  0.17200000000E+03 0.  1.
         -6    1    1    2    0  501 -0.42153767488E+02  0.16597617230E+02 -0.19327643123E+03  0.26266366304E+03  0.17200000000E+03 0. -1.
</event>
<event>
 4    1  0.3196149E-002  0.1817518E+03  0.7818608E-02  0.1166118E+00
          1   -1    0    0  502    0  0.00000000000E+00  0.00000000000E+00  0.19723368667E+03  0.19723368667E+03  0.00000000000E+00 0. -1.
         -1   -1    0    0    0  501 -0.00000000000E+00 -0.00000000000E+00 -0.24482140015E+03  0.24482140015E+03  0.00000000000E+00 0.  1.
          6    1    1    2  502    0 -0.40764860527E+02 -0.42284110709E+02  0.10043233563E+03  0.20765445796E+03  0.17200000000E+03 0. -1.
         -6    1    1    2    0  501  0.40764860527E+02  0.42284110709E+02 -0.14802004910E+03  0.23440062886E+03  0.17200000000E+03 0.  1.
</event>
<event>
 4    1  0.3196149E-002  0.2604355E+03  0.7818608E-02  0.1106882E+00
          1   -1    0    0  502    0  0.00000000000E+00  0.00000000000E+00  0.30886473997E+03  0.30886473997E+03  0.00000000000E+00 0. -1.
         -1   -1    0    0    0  501 -0.00000000000E+00 -0.00000000000E+00 -0.24089371936E+03  0.24089371936E+03  0.00000000000E+00 0.  1.
          6    1    1    2  502    0 -0.17781290155E+03 -0.81395376556E+02  0.11571089694E+03  0.28498359067E+03  0.17200000000E+03 0. -1.
         -6    1    1    2    0  501  0.17781290155E+03  0.81395376556E+02 -0.47739876328E+02  0.26477486866E+03  0.17200000000E+03 0.  1.
</event>
<event>
 4    1  0.3196149E-002  0.4277487E+03  0.7818608E-02  0.1034573E+00
         -2   -1    0    0    0  501 -0.00000000000E+00  0.00000000000E+00  0.34026979408E+03  0.34026979408E+03  0.00000000000E+00 0.  1.
          2   -1    0    0  502    0  0.00000000000E+00 -0.00000000000E+00 -0.53894760840E+03  0.53894760840E+03  0.00000000000E+00 0. -1.
          6    1    1    2  502    0  0.38883022509E+03 -0.46861890066E+02 -0.78335650085E+02  0.43486256997E+03  0.17200000000E+03 0. -1.
         -6    1    1    2    0  501 -0.38883022509E+03  0.46861890066E+02 -0.12034216423E+03  0.44435483251E+03  0.17200000000E+03 0.  1.
</event>
<event>
 4    1  0.3196149E-002  0.1955218E+03  0.7818608E-02  0.1153573E+00
         -1   -1    0    0    0  501 -0.00000000000E+00  0.00000000000E+00  0.20131444510E+04  0.20131444510E+04  0.00000000000E+00 0.  1.
          1   -1    0    0  502    0  0.00000000000E+00 -0.00000000000E+00 -0.23729530486E+02  0.23729530486E+02  0.00000000000E+00 0. -1.
          6    1    1    2  502    0  0.80346412184E+02 -0.46789036074E+02  0.53953427295E+03  0.57386931573E+03  0.17200000000E+03 0. -1.
         -6    1    1    2    0  501 -0.80346412184E+02  0.46789036074E+02  0.14498806476E+04  0.14630046658E+04  0.17200000000E+03 0.  1.
</event>
<event>
 4    1  0.3196149E-002  0.2415426E+03  0.7818608E-02  0.1118769E+00
         -2   -1    0    0    0  501 -0.00000000000E+00  0.00000000000E+00  0.90732610045E+02  0.90732610045E+02  0.00000000000E+00 0.  1.
          2   -1    0    0  502    0  0.00000000000E+00 -0.00000000000E+00 -0.10450430494E+04  0.10450430494E+04  0.00000000000E+00 0. -1.
          6    1    1    2  502    0  0.94358520894E+02 -0.14090886637E+03 -0.82938105569E+03  0.86383781732E+03  0.17200000000E+03 0. -1.
         -6    1    1    2    0  501 -0.94358520894E+02  0.14090886637E+03 -0.12492938369E+03  0.27193784215E+03  0.17200000000E+03 0.  1.
</event>
<event>
 4    1  0.3196149E-002  0.1777102E+03  0.7818608E-02  0.1170038E+00
          2   -1    0    0  502    0  0.00000000000E+00  0.00000000000E+00  0.14418981679E+04  0.14418981679E+04  0.00000000000E+00 0. -1.
         -2   -1    0    0    0  501 -0.00000000000E+00 -0.00000000000E+00 -0.24013019906E+02  0.24013019906E+02  0.00000000000E+00 0.  1.
          6    1    1    2  502    0  0.25814406730E+02  0.36476306604E+02  0.92624684929E+03  0.94314056765E+03  0.17200000000E+03 0. -1.
         -6    1    1    2    0  501 -0.25814406730E+02 -0.36476306604E+02  0.49163829868E+03  0.52277062012E+03  0.17200000000E+03 0.  1.
</event>
<event>
 4    1  0.3196149E-002  0.1973496E+03  0.7818608E-02  0.1151995E+00
          2   -1    0    0  502    0  0.00000000000E+00  0.00000000000E+00  0.84473714450E+02  0.84473714450E+02  0.00000000000E+00 0. -1.
         -2   -1    0    0    0  501 -0.00000000000E+00 -0.00000000000E+00 -0.68395380651E+03  0.68395380651E+03  0.00000000000E+00 0.  1.
          6    1    1    2  502    0 -0.76947152184E+02  0.58668544946E+02 -0.80401320525E+02  0.21309911951E+03  0.17200000000E+03 0. -1.
         -6    1    1    2    0  501  0.76947152184E+02 -0.58668544946E+02 -0.51907877153E+03  0.55532840144E+03  0.17200000000E+03 0.  1.
</event>
<event>
 4    1  0.3196149E-002  0.2073376E+03  0.7818608E-02  0.1143692E+00
         -2   -1    0    0    0  501 -0.00000000000E+00  0.00000000000E+00  0.72008993207E+03  0.72008993207E+03  0.00000000000E+00 0.  1.
          2   -1    0    0  502    0  0.00000000000E+00 -0.00000000000E+00 -0.18056873578E+03  0.18056873578E+03  0.00000000000E+00 0. -1.
          6    1    1    2  502    0 -0.22068255513E+02 -0.11365687081E+03 -0.98679710894E+02  0.22962268513E+03  0.17200000000E+03 0. -1.
         -6    1    1    2    0  501  0.22068255513E+02  0.11365687081E+03  0.63820090718E+03  0.67103598273E+03  0.17200000000E+03 0.  1.
</event>
<event>
 4    1  0.3196149E-002  0.2784858E+03  0.7818608E-02  0.1096519E+00
         -1   -1    0    0    0  501 -0.00000000000E+00  0.00000000000E+00  0.21322348015E+03  0.21322348015E+03  0.00000000000E+00 0.  1.
          1   -1    0    0  502    0  0.00000000000E+00 -0.00000000000E+00 -0.85192371477E+03  0.85192371477E+03  0.00000000000E+00 0. -1.
          6    1    1    2  502    0 -0.17852633937E+03 -0.12688064514E+03 -0.72251095775E+03  0.77432321160E+03  0.17200000000E+03 0. -1.
         -6    1    1    2    0  501  0.17852633937E+03  0.12688064514E+03  0.83810723131E+02  0.29082398331E+03  0.17200000000E+03 0.  1.
</event>
<event>
 4    1  0.3196149E-002  0.1793962E+03  0.7818608E-02  0.1168389E+00
         -2   -1    0    0    0  501 -0.00000000000E+00  0.00000000000E+00  0.48748890763E+03  0.48748890763E+03  0.00000000000E+00 0.  1.
          2   -1    0    0  502    0  0.00000000000E+00 -0.00000000000E+00 -0.76144668090E+02  0.76144668090E+02  0.00000000000E+00 0. -1.
          6    1    1    2  502    0 -0.28971537127E+02  0.41948181253E+02  0.10289835082E+03  0.20681167877E+03  0.17200000000E+03 0. -1.
         -6    1    1    2    0  501  0.28971537127E+02 -0.41948181253E+02  0.30844588872E+03  0.35682189695E+03  0.17200000000E+03 0.  1.
</event>
<event>
 4    1  0.3196149E-002  0.2483711E+03  0.7818608E-02  0.1114339E+00
          2   -1    0    0  502    0  0.00000000000E+00  0.00000000000E+00  0.26033940436E+03  0.26033940436E+03  0.00000000000E+00 0. -1.
         -2   -1    0    0    0  501 -0.00000000000E+00 -0.00000000000E+00 -0.23695308629E+03  0.23695308629E+03  0.00000000000E+00 0.  1.
          6    1    1    2  502    0 -0.15705051472E+03  0.86251655586E+02  0.11807657010E+02  0.24865162986E+03  0.17200000000E+03 0. -1.
         -6    1    1    2    0  501  0.15705051472E+03 -0.86251655586E+02  0.11578661058E+02  0.24864086080E+03  0.17200000000E+03 0. -1.
</event>
<event>
 4    1  0.3196149E-002  0.2073942E+03  0.7818608E-02  0.1143646E+00
          1   -1    0    0  502    0  0.00000000000E+00  0.00000000000E+00  0.25787002721E+02  0.25787002721E+02  0.00000000000E+00 0. -1.
         -1   -1    0    0    0  501 -0.00000000000E+00 -0.00000000000E+00 -0.17414781656E+04  0.17414781656E+04  0.00000000000E+00 0.  1.
          6    1    1    2  502    0  0.11126979020E+03 -0.32363105243E+02 -0.67632083780E+03  0.70740526747E+03  0.17200000000E+03 0. -1.
         -6    1    1    2    0  501 -0.11126979020E+03  0.32363105243E+02 -0.10393703251E+04  0.10598599009E+04  0.17200000000E+03 0. -1.
</event>
<event>
 4    1  0.3196149E-002  0.2935876E+03  0.7818608E-02  0.1088491E+00
          2   -1    0    0  502    0  0.00000000000E+00  0.00000000000E+00  0.15903726351E+04  0.15903726351E+04  0.00000000000E+00 0. -1.
         -2   -1    0    0    0  501 -0.00000000000E+00 -0.00000000000E+00 -0.65667673781E+02  0.65667673781E+02  0.00000000000E+00 0.  1.
          6    1    1    2  502    0 -0.25808366323E+02  0.23652406393E+03  0.11084163318E+04  0.11466387702E+04  0.17200000000E+03 0. -1.
         -6    1    1    2    0  501  0.25808366323E+02 -0.23652406393E+03  0.41628862944E+03  0.50940153867E+03  0.17200000000E+03 0.  1.
</event>
<event>
 4    1  0.3196149E-002  0.3069280E+03  0.7818608E-02  0.1081828E+00
          1   -1    0    0  502    0  0.00000000000E+00  0.00000000000E+00  0.33366005759E+03  0.33366005759E+03  0.00000000000E+00 0. -1.
         -1   -1    0    0    0  501 -0.00000000000E+00 -0.00000000000E+00 -0.43837543661E+03  0.43837543661E+03  0.00000000000E+00 0.  1.
          6    1    1    2  502    0  0.24965956212E+03  0.47863303712E+02  0.17794503319E+03  0.35478053447E+03  0.17200000000E+03 0. -1.
         -6    1    1    2    0  501 -0.24965956212E+03 -0.47863303712E+02 -0.28266041221E+03  0.41725495974E+03  0.17200000000E+03 0.  1.
</event>
<event>
 4    1  0.3196149E-002  0.1766333E+03  0.7818608E-02  0.1171102E+00
         -1   -1    0    0    0  501 -0.00000000000E+00  0.00000000000E+00  0.18352990937E+03  0.18352990937E+03  0.00000000000E+00 0.  1.
          1   -1    0    0  502    0  0.00000000000E+00 -0.00000000000E+00 -0.17535688714E+03  0.17535688714E+03  0.00000000000E+00 0. -1.
          6    1    1    2  502    0 -0.40157125006E+02  0.16552741969E+01 -0.27288789957E+02  0.17872888037E+03  0.17200000000E+03 0. -1.
         -6    1    1    2    0  501  0.40157125006E+02 -0.16552741969E+01  0.35461812190E+02  0.18015791613E+03  0.17200000000E+03 0.  1.
</event>
<event>
 4    1  0.3196149E-002  0.1772443E+03  0.7818608E-02  0.1170497E+00
          2   -1    0    0  502    0  0.00000000000E+00  0.00000000000E+00  0.35503381026E+03  0.35503381026E+03  0.00000000000E+00 0. -1.
         -2   -1    0    0    0  501 -0.00000000000E+00 -0.00000000000E+00 -0.10691351906E+03  0.10691351906E+03  0.00000000000E+00 0.  1.
          6    1    1    2  502    0 -0.11753998927E+02 -0.41150566918E+02  0.21995150099E+03  0.28247865130E+03  0.17200000000E+03 0. -1.
         -6    1    1    2    0  501  0.11753998927E+02  0.41150566918E+02  0.28168790209E+02  0.17946867802E+03  0.17200000000E+03 0.  1.
</event>
<event>
 4    1  0.3196149E-002  0.2015197E+03  0.7818608E-02  0.1148463E+00
         -2   -1    0    0    0  501 -0.00000000000E+00  0.00000000000E+00  0.13414191649E+02  0.13414191649E+02  0.00000000000E+00 0.  1.
          2   -1    0    0  502    0  0.00000000000E+00 -0.00000000000E+00 -0.30364119277E+04  0.30364119277E+04  0.00000000000E+00 0. -1.
          6    1    1    2  502    0  0.16245394979E+01 -0.10499307092E+03 -0.15945537756E+04  0.16072373588E+04  0.17200000000E+03 0. -1.
         -6    1    1    2    0  501 -0.16245394979E+01  0.10499307092E+03 -0.14284439605E+04  0.14425887606E+04  0.17200000000E+03 0.  1.
</event>
<event>
 4    1  0.3196149E-002  0.1730244E+03  0.7818608E-02  0.1174730E+00
          1   -1    0    0  502    0  0.00000000000E+00  0.00000000000E+00  0.12677712854E+04  0.12677712854E+04  0.00000000000E+00 0. -1.
         -1   -1    0    0    0  501 -0.00000000000E+00 -0.00000000000E+00 -0.25434328163E+02  0.25434328163E+02  0.00000000000E+00 0.  1.
          6    1    1    2  502    0 -0.18349672436E+02  0.40906764038E+01  0.79414004760E+03  0.81277048379E+03  0.17200000000E+03 0. -1.
         -6    1    1    2    0  501  0.18349672436E+02 -0.40906764038E+01  0.44819690959E+03  0.48043512973E+03  0.17200000000E+03 0.  1.
</event>
<event>
 4    1  0.3196149E-002  0.4608956E+03  0.7818608E-02  0.1024522E+00
          2   -1    0    0  502    0  0.00000000000E+00  0.00000000000E+00  0.13259191963E+04  0.13259191963E+04  0.00000000000E+00 0. -1.
         -2   -1    0    0    0  501 -0.00000000000E+00 -0.00000000000E+00 -0.69337600433E+03  0.69337600433E+03  0.00000000000E+00 0.  1.
          6    1    1    2  502    0 -0.27657942926E+03 -0.32610510158E+03  0.12016254521E+04  0.12869842443E+04  0.17200000000E+03 0. -1.
         -6    1    1    2    0  501  0.27657942926E+03  0.32610510158E+03 -0.56908226013E+03  0.73231095633E+03  0.17200000000E+03 0.  1.
</event>
<event>
 4    1  0.3196149E-002  0.2035888E+03  0.7818608E-02  0.1146746E+00
          2   -1    0    0  502    0  0.00000000000E+00  0.00000000000E+00  0.11434551234E+04  0.11434551234E+04  0.00000000000E+00 0. -1.
         -2   -1    0    0    0  501 -0.00000000000E+00 -0.00000000000E+00 -0.65454735662E+02  0.65454735662E+02  0.00000000000E+00 0.  1.
          6    1    1    2  502    0 -0.10179878323E+03 -0.38747806409E+02  0.94276842360E+03  0.96450022566E+03  0.17200000000E+03 0. -1.
         -6    1    1    2    0  501  0.10179878323E+03  0.38747806409E+02  0.13523196411E+03  0.24440963337E+03  0.17200000000E+03 0.  1.
</event>
<event>
 4    1  0.3196149E-002  0.1961135E+03  0.7818608E-02  0.1153060E+00
         -1   -1    0    0    0  501 -0.00000000000E+00  0.00000000000E+00  0.35882181018E+02  0.35882181018E+02  0.00000000000E+00 0.  1.
          1   -1    0    0  502    0  0.00000000000E+00 -0.00000000000E+00 -0.10854133264E+04  0.10854133264E+04  0.00000000000E+00 0. -1.
          6    1    1    2  502    0  0.74598244673E+02 -0.57546628568E+02 -0.58742519496E+03  0.61929707915E+03  0.17200000000E+03 0. -1.
         -6    1    1    2    0  501 -0.74598244673E+02  0.57546628568E+02 -0.46210595040E+03  0.50199842825E+03  0.17200000000E+03 0. -1.
</event>
<event>
 4    1  0.3196149E-002  0.1722395E+03  0.7818608E-02  0.1175532E+00
         -2   -1    0    0    0  501 -0.00000000000E+00  0.00000000000E+00  0.17887891721E+03  0.17887891721E+03  0.00000000000E+00 0.  1.
          2   -1    0    0  502    0  0.00000000000E+00 -0.00000000000E+00 -0.42255333266E+03  0.42255333266E+03  0.00000000000E+00 0. -1.
          6    1    1    2  502    0  0.56248823391E+01 -0.71273266368E+01 -0.35622483625E+03  0.39567988583E+03  0.17200000000E+03 0. -1.
         -6    1    1    2    0  501 -0.56248823391E+01  0.71273266368E+01  0.11255042081E+03  0.20575236404E+03  0.17200000000E+03 0.  1.
</event>
<event>
 4    1  0.3196149E-002  0.1786307E+03  0.7818608E-02  0.1169135E+00
          2   -1    0    0  502    0  0.00000000000E+00  0.00000000000E+00  0.12151667115E+03  0.12151667115E+03  0.00000000000E+00 0. -1.
         -2   -1    0    0    0  501 -0.00000000000E+00 -0.00000000000E+00 -0.28330802494E+03  0.28330802494E+03  0.00000000000E+00 0.  1.
          6    1    1    2  502    0 -0.42830215030E+02  0.22146902236E+02 -0.26156950992E+02  0.18053558841E+03  0.17200000000E+03 0.  1.
         -6    1    1    2    0  501  0.42830215030E+02 -0.22146902236E+02 -0.13563440280E+03  0.22428910767E+03  0.17200000000E+03 0.  1.
</event>
<event>
 4    1  0.3196149E-002  0.2339660E+03  0.7818608E-02  0.1123879E+00
          2   -1    0    0  502    0  0.00000000000E+00  0.00000000000E+00  0.16534705348E+03  0.16534705348E+03  0.00000000000E+00 0. -1.
         -2   -1    0    0    0  501 -0.00000000000E+00 -0.00000000000E+00 -0.37093212735E+03  0.37093212735E+03  0.00000000000E+00 0.  1.
          6    1    1    2  502    0  0.17769925735E+02  0.15760807204E+03 -0.19070272866E+03  0.30184036402E+03  0.17200000000E+03 0.  1.
         -6    1    1    2    0  501 -0.17769925735E+02 -0.15760807204E+03 -0.14882345207E+02  0.23443881682E+03  0.17200000000E+03 0. -1.
</event>
<event>
 4    1  0.3196149E-002  0.1861673E+03  0.7818608E-02  0.1161964E+00
          2   -1    0    0  502    0  0.00000000000E+00  0.00000000000E+00  0.11778276701E+04  0.11778276701E+04  0.00000000000E+00 0. -1.
         -2   -1    0    0    0  501 -0.00000000000E+00 -0.00000000000E+00 -0.31098182349E+02  0.31098182349E+02  0.00000000000E+00 0.  1.
          6    1    1    2  502    0 -0.54623255644E+02 -0.45722563894E+02  0.43318038603E+03  0.47149072075E+03  0.17200000000E+03 0.  1.
         -6    1    1    2    0  501  0.54623255644E+02  0.45722563894E+02  0.71354910171E+03  0.73743513169E+03  0.17200000000E+03 0. -1.
</event>
<event>
 4    1  0.3196149E-002  0.2444485E+03  0.7818608E-02  0.1116864E+00
         -1   -1    0    0    0  501 -0.00000000000E+00  0.00000000000E+00  0.72836949394E+02  0.72836949394E+02  0.00000000000E+00 0.  1.
          1   -1    0    0  502    0  0.00000000000E+00 -0.00000000000E+00 -0.16121394515E+04  0.16121394515E+04  0.00000000000E+00 0. -1.
          6    1    1    2  502    0  0.15437719758E+02  0.17301080662E+03 -0.13600630983E+04  0.13818562494E+04  0.17200000000E+03 0. -1.
         -6    1    1    2    0  501 -0.15437719758E+02 -0.17301080662E+03 -0.17923940373E+03  0.30312015150E+03  0.17200000000E+03 0.  1.
</event>
<event>
 4    1  0.3196149E-002  0.2302305E+03  0.7818608E-02  0.1126478E+00
          1   -1    0    0  502    0  0.00000000000E+00  0.00000000000E+00  0.60278276804E+02  0.60278276804E+02  0.00000000000E+00 0. -1.
         -1   -1    0    0    0  501 -0.00000000000E+00 -0.00000000000E+00 -0.88203312825E+03  0.88203312825E+03  0.00000000000E+00 0.  1.
          6    1    1    2  502    0 -0.38080722794E+02  0.14822941797E+03 -0.43683154086E+03  0.49378932440E+03  0.17200000000E+03 0. -1.
         -6    1    1    2    0  501  0.38080722794E+02 -0.14822941797E+03 -0.38492331059E+03  0.44852208065E+03  0.17200000000E+03 0.  1.
</event>
<event>
 4    1  0.3196149E-002  0.1926333E+03  0.7818608E-02  0.1156107E+00
          1   -1    0    0  502    0  0.00000000000E+00  0.00000000000E+00  0.13108242562E+04  0.13108242562E+04  0.00000000000E+00 0. -1.
         -1   -1    0    0    0  501 -0.00000000000E+00 -0.00000000000E+00 -0.30346192210E+02  0.30346192210E+02  0.00000000000E+00 0.  1.
          6    1    1    2  502    0 -0.74855027603E+02  0.43821529477E+02  0.81400324814E+03  0.83648603669E+03  0.17200000000E+03 0. -1.
         -6    1    1    2    0  501  0.74855027603E+02 -0.43821529477E+02  0.46647481583E+03  0.50468441169E+03  0.17200000000E+03 0.  1.
</event>
<event>
 4    1  0.3196149E-002  0.3004191E+03  0.7818608E-02  0.1085031E+00
          1   -1    0    0  502    0  0.00000000000E+00  0.00000000000E+00  0.79654872956E+03  0.79654872956E+03  0.00000000000E+00 0. -1.
         -1   -1    0    0    0  501 -0.00000000000E+00 -0.00000000000E+00 -0.16215325780E+03  0.16215325780E+03  0.00000000000E+00 0.  1.
          6    1    1    2  502    0 -0.16637579677E+03  0.18162246168E+03  0.58029888902E+03  0.65345116492E+03  0.17200000000E+03 0. -1.
         -6    1    1    2    0  501  0.16637579677E+03 -0.18162246168E+03  0.54096582733E+02  0.30525082244E+03  0.17200000000E+03 0.  1.
</event>
<event>
 4    1  0.3196149E-002  0.1724770E+03  0.7818608E-02  0.1175289E+00
         -1   -1    0    0    0  501 -0.00000000000E+00  0.00000000000E+00  0.12320591388E+03  0.12320591388E+03  0.00000000000E+00 0.  1.
          1   -1    0    0  502    0  0.00000000000E+00 -0.00000000000E+00 -0.34335218142E+03  0.34335218142E+03  0.00000000000E+00 0. -1.
          6    1    1    2  502    0  0.10364655368E+02  0.75426364792E+01 -0.23715782927E+03  0.29324418738E+03  0.17200000000E+03 0. -1.
         -6    1    1    2    0  501 -0.10364655368E+02 -0.75426364792E+01  0.17011561740E+02  0.17331390792E+03  0.17200000000E+03 0.  1.
</event>
<event>
 4    1  0.3196149E-002  0.1929612E+03  0.7818608E-02  0.1155817E+00
         -1   -1    0    0    0  501 -0.00000000000E+00  0.00000000000E+00  0.82571575950E+03  0.82571575950E+03  0.00000000000E+00 0.  1.
          1   -1    0    0  502    0  0.00000000000E+00 -0.00000000000E+00 -0.53894548451E+02  0.53894548451E+02  0.00000000000E+00 0. -1.
          6    1    1    2  502    0 -0.18379769997E+02  0.85511393141E+02  0.56364318034E+03  0.59575804572E+03  0.17200000000E+03 0.  1.
         -6    1    1    2    0  501  0.18379769997E+02 -0.85511393141E+02  0.20817803071E+03  0.28385226223E+03  0.17200000000E+03 0. -1.
</event>
<event>
 4    1  0.3196149E-002  0.3964193E+03  0.7818608E-02  0.1045027E+00
          1   -1    0    0  502    0  0.00000000000E+00  0.00000000000E+00  0.95241653313E+03  0.95241653313E+03  0.00000000000E+00 0. -1.
         -1   -1    0    0    0  501 -0.00000000000E+00 -0.00000000000E+00 -0.31418868943E+03  0.31418868943E+03  0.00000000000E+00 0.  1.
          6    1    1    2  502    0  0.33696369367E+03 -0.11840480378E+03  0.75551389808E+03  0.85319955380E+03  0.17200000000E+03 0. -1.
         -6    1    1    2    0  501 -0.33696369367E+03  0.11840480378E+03 -0.11728605439E+03  0.41340566876E+03  0.17200000000E+03 0.  1.
</event>
<event>
 4    1  0.3196149E-002  0.1944778E+03  0.7818608E-02  0.1154484E+00
          2   -1    0    0  502    0  0.00000000000E+00  0.00000000000E+00  0.13235419325E+04  0.13235419325E+04  0.00000000000E+00 0. -1.
         -2   -1    0    0    0  501 -0.00000000000E+00 -0.00000000000E+00 -0.30007990494E+02  0.30007990494E+02  0.00000000000E+00 0.  1.
          6    1    1    2  502    0  0.32682803544E+02 -0.84672652800E+02  0.79460482085E+03  0.81805772724E+03  0.17200000000E+03 0.  1.
         -6    1    1    2    0  501 -0.32682803544E+02  0.84672652800E+02  0.49892912120E+03  0.53549219580E+03  0.17200000000E+03 0. -1.
</event>
<event>
 4    1  0.3196149E-002  0.2456148E+03  0.7818608E-02  0.1116108E+00
         -1   -1    0    0    0  501 -0.00000000000E+00  0.00000000000E+00  0.98576672941E+02  0.98576672941E+02  0.00000000000E+00 0.  1.
          1   -1    0    0  502    0  0.00000000000E+00 -0.00000000000E+00 -0.66399165150E+03  0.66399165150E+03  0.00000000000E+00 0. -1.
          6    1    1    2  502    0 -0.16710431049E+03  0.53092060891E+02 -0.38942408368E+03  0.46041039786E+03  0.17200000000E+03 0. -1.
         -6    1    1    2    0  501  0.16710431049E+03 -0.53092060891E+02 -0.17599089488E+03  0.30215792658E+03  0.17200000000E+03 0. -1.
</event>
<event>
 4    1  0.3196149E-002  0.2952328E+03  0.7818608E-02  0.1087648E+00
         -2   -1    0    0    0  501 -0.00000000000E+00  0.00000000000E+00  0.24785490651E+03  0.24785490651E+03  0.00000000000E+00 0.  1.
          2   -1    0    0  502    0  0.00000000000E+00 -0.00000000000E+00 -0.22421089410E+04  0.22421089410E+04  0.00000000000E+00 0. -1.
          6    1    1    2  502    0 -0.71340595890E+02 -0.22910467917E+03 -0.21403115569E+04  0.21605776995E+04  0.17200000000E+03 0. -1.
         -6    1    1    2    0  501  0.71340595890E+02  0.22910467917E+03  0.14605752248E+03  0.32938614803E+03  0.17200000000E+03 0.  1.
</event>
<event>
 4    1  0.3196149E-002  0.2437925E+03  0.7818608E-02  0.1117292E+00
          2   -1    0    0  502    0  0.00000000000E+00  0.00000000000E+00  0.21615795619E+04  0.21615795619E+04  0.00000000000E+00 0. -1.
         -2   -1    0    0    0  501 -0.00000000000E+00 -0.00000000000E+00 -0.27552791645E+02  0.27552791645E+02  0.00000000000E+00 0.  1.
          6    1    1    2  502    0 -0.90039701711E+02  0.14745730687E+03  0.11167043451E+04  0.11430062991E+04  0.17200000000E+03 0. -1.
         -6    1    1    2    0  501  0.90039701711E+02 -0.14745730687E+03  0.10173224251E+04  0.10461260545E+04  0.17200000000E+03 0. -1.
</event>
<event>
 4    1  0.3196149E-002  0.3685845E+03  0.7818608E-02  0.1055236E+00
         -2   -1    0    0    0  501 -0.00000000000E+00  0.00000000000E+00  0.11914724119E+03  0.11914724119E+03  0.00000000000E+00 0.  1.
          2   -1    0    0  502    0  0.00000000000E+00 -0.00000000000E+00 -0.14096492344E+04  0.14096492344E+04  0.00000000000E+00 0. -1.
          6    1    1    2  502    0  0.32507660305E+03 -0.24407613162E+02 -0.97943324770E+03  0.10464912881E+04  0.17200000000E+03 0. -1.
         -6    1    1    2    0  501 -0.32507660305E+03  0.24407613162E+02 -0.31106874554E+03  0.48230518750E+03  0.17200000000E+03 0.  1.
</event>
<event>
 4    1  0.3196149E-002  0.1993404E+03  0.7818608E-02  0.1150297E+00
          1   -1    0    0  502    0  0.00000000000E+00  0.00000000000E+00  0.35872210016E+03  0.35872210016E+03  0.00000000000E+00 0. -1.
         -1   -1    0    0    0  501 -0.00000000000E+00 -0.00000000000E+00 -0.12495403437E+03  0.12495403437E+03  0.00000000000E+00 0.  1.
          6    1    1    2  502    0 -0.38439075364E+01  0.10068672234E+03  0.35411899093E+02  0.20246134021E+03  0.17200000000E+03 0. -1.
         -6    1    1    2    0  501  0.38439075364E+01 -0.10068672234E+03  0.19835616670E+03  0.28121479433E+03  0.17200000000E+03 0.  1.
</event>
<event>
 4    1  0.3196149E-002  0.2490468E+03  0.7818608E-02  0.1113909E+00
         -2   -1    0    0    0  501 -0.00000000000E+00  0.00000000000E+00  0.39777265595E+02  0.39777265595E+02  0.00000000000E+00 0.  1.
          2   -1    0    0  502    0  0.00000000000E+00 -0.00000000000E+00 -0.20665783304E+04  0.20665783304E+04  0.00000000000E+00 0. -1.
          6    1    1    2  502    0 -0.13601836283E+03 -0.11806489462E+03 -0.15351991930E+04  0.15552687474E+04  0.17200000000E+03 0. -1.
         -6    1    1    2    0  501  0.13601836283E+03  0.11806489462E+03 -0.49160187185E+03  0.55108684866E+03  0.17200000000E+03 0.  1.
</event>
<event>
 4    1  0.3196149E-002  0.3223218E+03  0.7818608E-02  0.1074586E+00
         -2   -1    0    0    0  501 -0.00000000000E+00  0.00000000000E+00  0.47017987576E+02  0.47017987576E+02  0.00000000000E+00 0.  1.
          2   -1    0    0  502    0  0.00000000000E+00 -0.00000000000E+00 -0.22399922129E+04  0.22399922129E+04  0.00000000000E+00 0. -1.
          6    1    1    2  502    0 -0.95535695618E+02  0.25530431554E+03 -0.12296651430E+04  0.12712071926E+04  0.17200000000E+03 0.  1.
         -6    1    1    2    0  501  0.95535695618E+02 -0.25530431554E+03 -0.96330908229E+03  0.10158030078E+04  0.17200000000E+03 0.  1.
</event>
<event>
 4    1  0.3196149E-002  0.1998842E+03  0.7818608E-02  0.1149837E+00
         -2   -1    0    0    0  501 -0.00000000000E+00  0.00000000000E+00  0.38846470508E+02  0.38846470508E+02  0.00000000000E+00 0.  1.
          2   -1    0    0  502    0  0.00000000000E+00 -0.00000000000E+00 -0.11056148667E+04  0.11056148667E+04  0.00000000000E+00 0. -1.
          6    1    1    2  502    0  0.53267786813E+02 -0.86788463037E+02 -0.38226103405E+03  0.43136665678E+03  0.17200000000E+03 0. -1.
         -6    1    1    2    0  501 -0.53267786813E+02  0.86788463037E+02 -0.68450736212E+03  0.71309468041E+03  0.17200000000E+03 0.  1.
</event>
<event>
 4    1  0.3196149E-002  0.1860218E+03  0.7818608E-02  0.1162099E+00
         -2   -1    0    0    0  501 -0.00000000000E+00  0.00000000000E+00  0.12103874862E+03  0.12103874862E+03  0.00000000000E+00 0.  1.
          2   -1    0    0  502    0  0.00000000000E+00 -0.00000000000E+00 -0.32137245489E+03  0.32137245489E+03  0.00000000000E+00 0. -1.
          6    1    1    2  502    0 -0.56661301401E+02 -0.42539687865E+02 -0.17366568022E+03  0.25448751758E+03  0.17200000000E+03 0. -1.
         -6    1    1    2    0  501  0.56661301401E+02  0.42539687865E+02 -0.26668026053E+02  0.18792368593E+03  0.17200000000E+03 0.  1.
</event>
<event>
 4    1  0.3196149E-002  0.2615855E+03  0.7818608E-02  0.1106194E+00
          2   -1    0    0  502    0  0.00000000000E+00  0.00000000000E+00  0.23643036390E+04  0.23643036390E+04  0.00000000000E+00 0. -1.
         -2   -1    0    0    0  501 -0.00000000000E+00 -0.00000000000E+00 -0.29544841631E+02  0.29544841631E+02  0.00000000000E+00 0.  1.
          6    1    1    2  502    0 -0.19707500684E+03  0.21072636293E+01  0.13383929679E+04  0.13637165158E+04  0.17200000000E+03 0. -1.
         -6    1    1    2    0  501  0.19707500684E+03 -0.21072636293E+01  0.99636582952E+03  0.10301319649E+04  0.17200000000E+03 0.  1.
</event>
<event>
 4    1  0.3196149E-002  0.2041748E+03  0.7818608E-02  0.1146264E+00
          2   -1    0    0  502    0  0.00000000000E+00  0.00000000000E+00  0.99458590576E+03  0.99458590576E+03  0.00000000000E+00 0. -1.
         -2   -1    0    0    0  501 -0.00000000000E+00 -0.00000000000E+00 -0.13927506085E+03  0.13927506085E+03  0.00000000000E+00 0.  1.
          6    1    1    2  502    0  0.10522792159E+03  0.32100599299E+02 -0.46351984862E+02  0.20937017567E+03  0.17200000000E+03 0. -1.
         -6    1    1    2    0  501 -0.10522792159E+03 -0.32100599299E+02  0.90166282977E+03  0.92449079095E+03  0.17200000000E+03 0. -1.
</event>
<event>
 4    1  0.3196149E-002  0.6052578E+03  0.7818608E-02  0.9894557E-01
          1   -1    0    0  502    0  0.00000000000E+00  0.00000000000E+00  0.28030283588E+04  0.28030283588E+04  0.00000000000E+00 0. -1.
         -1   -1    0    0    0  501 -0.00000000000E+00 -0.00000000000E+00 -0.14408996209E+03  0.14408996209E+03  0.00000000000E+00 0.  1.
          6    1    1    2  502    0  0.15702003510E+02  0.58009174367E+03  0.17787824823E+04  0.18789369610E+04  0.17200000000E+03 0. -1.
         -6    1    1    2    0  501 -0.15702003510E+02 -0.58009174367E+03  0.88015591438E+03  0.10681813599E+04  0.17200000000E+03 0.  1.
</event>
<event>
 4    1  0.3196149E-002  0.3387392E+03  0.7818608E-02  0.1067334E+00
          2   -1    0    0  502    0  0.00000000000E+00  0.00000000000E+00  0.18264178021E+04  0.18264178021E+04  0.00000000000E+00 0. -1.
         -2   -1    0    0    0  501 -0.00000000000E+00 -0.00000000000E+00 -0.75843021406E+02  0.75843021406E+02  0.00000000000E+00 0.  1.
          6    1    1    2  502    0  0.91591313327E+02 -0.27707625748E+03  0.48123033762E+03  0.58849541967E+03  0.17200000000E+03 0. -1.
         -6    1    1    2    0  501 -0.91591313327E+02  0.27707625748E+03  0.12693444431E+04  0.13137654039E+04  0.17200000000E+03 0. -1.
</event>
<event>
 4    1  0.3196149E-002  0.2093555E+03  0.7818608E-02  0.1142077E+00
          2   -1    0    0  502    0  0.00000000000E+00  0.00000000000E+00  0.86084149617E+03  0.86084149617E+03  0.00000000000E+00 0. -1.
         -2   -1    0    0    0  501 -0.00000000000E+00 -0.00000000000E+00 -0.12494469603E+03  0.12494469603E+03  0.00000000000E+00 0.  1.
          6    1    1    2  502    0  0.85080409737E+02 -0.83708174701E+02  0.74734797530E+03  0.77611773000E+03  0.17200000000E+03 0. -1.
         -6    1    1    2    0  501 -0.85080409737E+02  0.83708174701E+02 -0.11451175162E+02  0.20966846221E+03  0.17200000000E+03 0.  1.
</event>
<event>
 4    1  0.3196149E-002  0.3780323E+03  0.7818608E-02  0.1051663E+00
         -2   -1    0    0    0  501 -0.00000000000E+00  0.00000000000E+00  0.84554842993E+02  0.84554842993E+02  0.00000000000E+00 0.  1.
          2   -1    0    0  502    0  0.00000000000E+00 -0.00000000000E+00 -0.32964764505E+04  0.32964764505E+04  0.00000000000E+00 0. -1.
          6    1    1    2  502    0 -0.29793282330E+03  0.15671768616E+03 -0.27860484308E+04  0.28115786063E+04  0.17200000000E+03 0. -1.
         -6    1    1    2    0  501  0.29793282330E+03 -0.15671768616E+03 -0.42587317665E+03  0.56945268719E+03  0.17200000000E+03 0.  1.
</event>
<event>
 4    1  0.3196149E-002  0.2021159E+03  0.7818608E-02  0.1147966E+00
          1   -1    0    0  502    0  0.00000000000E+00  0.00000000000E+00  0.43235846025E+03  0.43235846025E+03  0.00000000000E+00 0. -1.
         -1   -1    0    0    0  501 -0.00000000000E+00 -0.00000000000E+00 -0.15287566755E+03  0.15287566755E+03  0.00000000000E+00 0.  1.
          6    1    1    2  502    0 -0.10525728156E+03 -0.13701784181E+02  0.32058658467E+03  0.37898099224E+03  0.17200000000E+03 0. -1.
         -6    1    1    2    0  501  0.10525728156E+03  0.13701784181E+02 -0.41103791968E+02  0.20625313555E+03  0.17200000000E+03 0.  1.
</event>
<event>
 4    1  0.3196149E-002  0.1942460E+03  0.7818608E-02  0.1154687E+00
         -1   -1    0    0    0  501 -0.00000000000E+00  0.00000000000E+00  0.43869124858E+03  0.43869124858E+03  0.00000000000E+00 0.  1.
          1   -1    0    0  502    0  0.00000000000E+00 -0.00000000000E+00 -0.91848036322E+02  0.91848036322E+02  0.00000000000E+00 0. -1.
          6    1    1    2  502    0 -0.85910571060E+02 -0.27692485487E+02  0.10653882027E+03  0.22154462349E+03  0.17200000000E+03 0. -1.
         -6    1    1    2    0  501  0.85910571060E+02  0.27692485487E+02  0.24030439200E+03  0.30899466142E+03  0.17200000000E+03 0.  1.
</event>
<event>
 4    1  0.3196149E-002  0.1844429E+03  0.7818608E-02  0.1163571E+00
         -1   -1    0    0    0  501 -0.00000000000E+00  0.00000000000E+00  0.33387261320E+02  0.33387261320E+02  0.00000000000E+00 0.  1.
          1   -1    0    0  502    0  0.00000000000E+00 -0.00000000000E+00 -0.22344256273E+04  0.22344256273E+04  0.00000000000E+00 0. -1.
          6    1    1    2  502    0  0.34919144710E+02 -0.56708455784E+02 -0.19368371657E+04  0.19455994968E+04  0.17200000000E+03 0. -1.
         -6    1    1    2    0  501 -0.34919144710E+02  0.56708455784E+02 -0.26420120032E+03  0.32221339183E+03  0.17200000000E+03 0.  1.
</event>
<event>
 4    1  0.3196149E-002  0.4632359E+03  0.7818608E-02  0.1023847E+00
          1   -1    0    0  502    0  0.00000000000E+00  0.00000000000E+00  0.12661895788E+04  0.12661895788E+04  0.00000000000E+00 0. -1.
         -1   -1    0    0    0  501 -0.00000000000E+00 -0.00000000000E+00 -0.17126411199E+03  0.17126411199E+03  0.00000000000E+00 0.  1.
          6    1    1    2  502    0 -0.20655502609E+03  0.37727777253E+03  0.47400326842E+03  0.66277190264E+03  0.17200000000E+03 0. -1.
         -6    1    1    2    0  501  0.20655502609E+03 -0.37727777253E+03  0.62092219838E+03  0.77468178815E+03  0.17200000000E+03 0.  1.
</event>
<event>
 4    1  0.3196149E-002  0.2238896E+03  0.7818608E-02  0.1131016E+00
         -1   -1    0    0    0  501 -0.00000000000E+00  0.00000000000E+00  0.20242666797E+03  0.20242666797E+03  0.00000000000E+00 0.  1.
          1   -1    0    0  502    0  0.00000000000E+00 -0.00000000000E+00 -0.75574407674E+03  0.75574407674E+03  0.00000000000E+00 0. -1.
          6    1    1    2  502    0 -0.72707918157E+01 -0.14314220093E+03 -0.66949075309E+03  0.70593514049E+03  0.17200000000E+03 0. -1.
         -6    1    1    2    0  501  0.72707918157E+01  0.14314220093E+03  0.11617334433E+03  0.25223560421E+03  0.17200000000E+03 0.  1.
</event>
<event>
 4    1  0.3196149E-002  0.1914519E+03  0.7818608E-02  0.1157158E+00
         -1   -1    0    0    0  501 -0.00000000000E+00  0.00000000000E+00  0.87300718168E+02  0.87300718168E+02  0.00000000000E+00 0.  1.
          1   -1    0    0  502    0  0.00000000000E+00 -0.00000000000E+00 -0.53886026022E+03  0.53886026022E+03  0.00000000000E+00 0. -1.
          6    1    1    2  502    0 -0.83514772830E+02 -0.97530668520E+01 -0.37290830112E+03  0.41918306339E+03  0.17200000000E+03 0.  1.
         -6    1    1    2    0  501  0.83514772830E+02  0.97530668520E+01 -0.78651240933E+02  0.20697791499E+03  0.17200000000E+03 0.  1.
</event>
<event>
 4    1  0.3196149E-002  0.3050184E+03  0.7818608E-02  0.1082759E+00
          2   -1    0    0  502    0  0.00000000000E+00  0.00000000000E+00  0.27574114102E+03  0.27574114102E+03  0.00000000000E+00 0. -1.
         -2   -1    0    0    0  501 -0.00000000000E+00 -0.00000000000E+00 -0.88620403143E+03  0.88620403143E+03  0.00000000000E+00 0.  1.
          6    1    1    2  502    0  0.35163058560E+02  0.24943093561E+03  0.15195752589E+03  0.34077459119E+03  0.17200000000E+03 0. -1.
         -6    1    1    2    0  501 -0.35163058560E+02 -0.24943093561E+03 -0.76242041630E+03  0.82117058126E+03  0.17200000000E+03 0.  1.
</event>
<event>
 4    1  0.3196149E-002  0.2301194E+03  0.7818608E-02  0.1126556E+00
          2   -1    0    0  502    0  0.00000000000E+00  0.00000000000E+00  0.13342950047E+03  0.13342950047E+03  0.00000000000E+00 0. -1.
         -2   -1    0    0    0  501 -0.00000000000E+00 -0.00000000000E+00 -0.46512872752E+03  0.46512872752E+03  0.00000000000E+00 0.  1.
          6    1    1    2  502    0  0.29457653409E+02  0.15001064818E+03 -0.51205892144E+02  0.23574772810E+03  0.17200000000E+03 0. -1.
         -6    1    1    2    0  501 -0.29457653409E+02 -0.15001064818E+03 -0.28049333490E+03  0.36281049990E+03  0.17200000000E+03 0.  1.
</event>
<event>
 4    1  0.3196149E-002  0.2040816E+03  0.7818608E-02  0.1146340E+00
          2   -1    0    0  502    0  0.00000000000E+00  0.00000000000E+00  0.17103510213E+04  0.17103510213E+04  0.00000000000E+00 0. -1.
         -2   -1    0    0    0  501 -0.00000000000E+00 -0.00000000000E+00 -0.24932530184E+02  0.24932530184E+02  0.00000000000E+00 0.  1.
          6    1    1    2  502    0  0.91321536167E+02 -0.61038456736E+02  0.97518044004E+03  0.99630628163E+03  0.17200000000E+03 0. -1.
         -6    1    1    2    0  501 -0.91321536167E+02  0.61038456736E+02  0.71023805103E+03  0.73897726981E+03  0.17200000000E+03 0.  1.
</event>
<event>
 4    1  0.3196149E-002  0.3073709E+03  0.7818608E-02  0.1081613E+00
         -2   -1    0    0    0  501 -0.00000000000E+00  0.00000000000E+00  0.50969806983E+02  0.50969806983E+02  0.00000000000E+00 0.  1.
          2   -1    0    0  502    0  0.00000000000E+00 -0.00000000000E+00 -0.23451449922E+04  0.23451449922E+04  0.00000000000E+00 0. -1.
          6    1    1    2  502    0 -0.14769901790E+03  0.20755206626E+03 -0.16955932658E+04  0.17232276063E+04  0.17200000000E+03 0. -1.
         -6    1    1    2    0  501  0.14769901790E+03 -0.20755206626E+03 -0.59858191945E+03  0.67288719291E+03  0.17200000000E+03 0.  1.
</event>
<event>
 4    1  0.3196149E-002  0.2431005E+03  0.7818608E-02  0.1117744E+00
         -1   -1    0    0    0  501 -0.00000000000E+00  0.00000000000E+00  0.18840775344E+03  0.18840775344E+03  0.00000000000E+00 0.  1.
          1   -1    0    0  502    0  0.00000000000E+00 -0.00000000000E+00 -0.65551003235E+03  0.65551003235E+03  0.00000000000E+00 0. -1.
          6    1    1    2  502    0  0.16626102092E+03 -0.43256297949E+02 -0.53826486683E+03  0.59061569675E+03  0.17200000000E+03 0. -1.
         -6    1    1    2    0  501 -0.16626102092E+03  0.43256297949E+02  0.71162587916E+02  0.25330208903E+03  0.17200000000E+03 0.  1.
</event>
<event>
 4    1  0.3196149E-002  0.3586074E+03  0.7818608E-02  0.1059137E+00
         -2   -1    0    0    0  501 -0.00000000000E+00  0.00000000000E+00  0.19213478245E+03  0.19213478245E+03  0.00000000000E+00 0.  1.
          2   -1    0    0  502    0  0.00000000000E+00 -0.00000000000E+00 -0.10712066459E+04  0.10712066459E+04  0.00000000000E+00 0. -1.
          6    1    1    2  502    0  0.27902536007E+03 -0.14546517784E+03 -0.52628583375E+02  0.36244866853E+03  0.17200000000E+03 0. -1.
         -6    1    1    2    0  501 -0.27902536007E+03  0.14546517784E+03 -0.82644328008E+03  0.90089275983E+03  0.17200000000E+03 0.  1.
</event>
<event>
 4    1  0.3196149E-002  0.1816219E+03  0.7818608E-02  0.1166242E+00
         -3   -1    0    0    0  501 -0.00000000000E+00  0.00000000000E+00  0.22093513358E+03  0.22093513358E+03  0.00000000000E+00 0.  1.
          3   -1    0    0  502    0  0.00000000000E+00 -0.00000000000E+00 -0.31124256027E+03  0.31124256027E+03  0.00000000000E+00 0. -1.
          6    1    1    2  502    0  0.38806228172E+02 -0.43550022905E+02 -0.23708781528E+03  0.29865893590E+03  0.17200000000E+03 0. -1.
         -6    1    1    2    0  501 -0.38806228172E+02  0.43550022905E+02  0.14678038859E+03  0.23351875795E+03  0.17200000000E+03 0.  1.
</event>
<event>
 4    1  0.3196149E-002  0.1733577E+03  0.7818608E-02  0.1174391E+00
          1   -1    0    0  502    0  0.00000000000E+00  0.00000000000E+00  0.69173918388E+03  0.69173918388E+03  0.00000000000E+00 0. -1.
         -1   -1    0    0    0  501 -0.00000000000E+00 -0.00000000000E+00 -0.62397127803E+02  0.62397127803E+02  0.00000000000E+00 0.  1.
          6    1    1    2  502    0  0.20252658824E+02  0.76635578304E+01  0.52247876734E+03  0.55048793141E+03  0.17200000000E+03 0. -1.
         -6    1    1    2    0  501 -0.20252658824E+02 -0.76635578304E+01  0.10686328874E+03  0.20364838027E+03  0.17200000000E+03 0.  1.
</event>
<event>
 4    1  0.3196149E-002  0.6043290E+03  0.7818608E-02  0.9896465E-01
          2   -1    0    0  502    0  0.00000000000E+00  0.00000000000E+00  0.20078628102E+04  0.20078628102E+04  0.00000000000E+00 0. -1.
         -2   -1    0    0    0  501 -0.00000000000E+00 -0.00000000000E+00 -0.23129796250E+03  0.23129796250E+03  0.00000000000E+00 0.  1.
          6    1    1    2  502    0 -0.36367975420E+03 -0.45096190134E+03  0.14057228246E+04  0.15301209951E+04  0.17200000000E+03 0. -1.
         -6    1    1    2    0  501  0.36367975420E+03  0.45096190134E+03  0.37084202303E+03  0.70903977753E+03  0.17200000000E+03 0.  1.
</event>
<event>
 4    1  0.3196149E-002  0.2074637E+03  0.7818608E-02  0.1143590E+00
         -1   -1    0    0    0  501 -0.00000000000E+00  0.00000000000E+00  0.30410131113E+03  0.30410131113E+03  0.00000000000E+00 0.  1.
          1   -1    0    0  502    0  0.00000000000E+00 -0.00000000000E+00 -0.22468888432E+03  0.22468888432E+03  0.00000000000E+00 0. -1.
          6    1    1    2  502    0  0.96486616515E+02  0.64401396343E+02  0.20054912183E+03  0.28855009493E+03  0.17200000000E+03 0.  1.
         -6    1    1    2    0  501 -0.96486616515E+02 -0.64401396343E+02 -0.12113669502E+03  0.24024010052E+03  0.17200000000E+03 0. -1.
</event>
<event>
 4    1  0.3196149E-002  0.3023300E+03  0.7818608E-02  0.1084082E+00
         -2   -1    0    0    0  501 -0.00000000000E+00  0.00000000000E+00  0.10962454788E+03  0.10962454788E+03  0.00000000000E+00 0.  1.
          2   -1    0    0  502    0  0.00000000000E+00 -0.00000000000E+00 -0.84194861773E+03  0.84194861773E+03  0.00000000000E+00 0. -1.
          6    1    1    2  502    0  0.17545370593E+03 -0.17616877920E+03 -0.31931552616E+03  0.43973383647E+03  0.17200000000E+03 0. -1.
         -6    1    1    2    0  501 -0.17545370593E+03  0.17616877920E+03 -0.41300854369E+03  0.51183932913E+03  0.17200000000E+03 0.  1.
</event>
<event>
 4    1  0.3196149E-002  0.1967985E+03  0.7818608E-02  0.1152469E+00
         -2   -1    0    0    0  501 -0.00000000000E+00  0.00000000000E+00  0.13353706457E+03  0.13353706457E+03  0.00000000000E+00 0.  1.
          2   -1    0    0  502    0  0.00000000000E+00 -0.00000000000E+00 -0.34385306645E+03  0.34385306645E+03  0.00000000000E+00 0. -1.
          6    1    1    2  502    0  0.80805873380E+02 -0.51147315658E+02 -0.19959556291E+03  0.28029988549E+03  0.17200000000E+03 0. -1.
         -6    1    1    2    0  501 -0.80805873380E+02  0.51147315658E+02 -0.10720438965E+02  0.19709024553E+03  0.17200000000E+03 0.  1.
</event>
<event>
 4    1  0.3196149E-002  0.4761353E+03  0.7818608E-02  0.1020203E+00
          3   -1    0    0  502    0  0.00000000000E+00  0.00000000000E+00  0.68272230598E+03  0.68272230598E+03  0.00000000000E+00 0. -1.
         -3   -1    0    0    0  501 -0.00000000000E+00 -0.00000000000E+00 -0.46233589172E+03  0.46233589172E+03  0.00000000000E+00 0.  1.
          6    1    1    2  502    0  0.77032675749E+02 -0.43724915463E+03  0.41410711409E+03  0.63102262899E+03  0.17200000000E+03 0. -1.
         -6    1    1    2    0  501 -0.77032675749E+02  0.43724915463E+03 -0.19372069982E+03  0.51403556871E+03  0.17200000000E+03 0.  1.
</event>
<event>
 4    1  0.3196149E-002  0.1945193E+03  0.7818608E-02  0.1154447E+00
         -1   -1    0    0    0  501 -0.00000000000E+00  0.00000000000E+00  0.50204289161E+03  0.50204289161E+03  0.00000000000E+00 0.  1.
          1   -1    0    0  502    0  0.00000000000E+00 -0.00000000000E+00 -0.34886372820E+03  0.34886372820E+03  0.00000000000E+00 0. -1.
          6    1    1    2  502    0  0.83558054977E+02  0.35662495781E+02 -0.30011386870E+03  0.35763961797E+03  0.17200000000E+03 0. -1.
         -6    1    1    2    0  501 -0.83558054977E+02 -0.35662495781E+02  0.45329303210E+03  0.49326700184E+03  0.17200000000E+03 0.  1.
</event>
<event>
 4    1  0.3196149E-002  0.4538081E+03  0.7818608E-02  0.1026592E+00
         -1   -1    0    0    0  501 -0.00000000000E+00  0.00000000000E+00  0.92375152328E+03  0.92375152328E+03  0.00000000000E+00 0.  1.
          1   -1    0    0  502    0  0.00000000000E+00 -0.00000000000E+00 -0.23270023958E+03  0.23270023958E+03  0.00000000000E+00 0. -1.
          6    1    1    2  502    0 -0.38453512434E+03  0.16879138823E+03  0.22710860836E+03  0.50746439735E+03  0.17200000000E+03 0. -1.
         -6    1    1    2    0  501  0.38453512434E+03 -0.16879138823E+03  0.46394267534E+03  0.64898736551E+03  0.17200000000E+03 0.  1.
</event>
<event>
 4    1  0.3196149E-002  0.2366590E+03  0.7818608E-02  0.1122039E+00
         -2   -1    0    0    0  501 -0.00000000000E+00  0.00000000000E+00  0.83519136809E+02  0.83519136809E+02  0.00000000000E+00 0.  1.
          2   -1    0    0  502    0  0.00000000000E+00 -0.00000000000E+00 -0.78314473025E+03  0.78314473025E+03  0.00000000000E+00 0. -1.
          6    1    1    2  502    0  0.56257184129E+02  0.15250769978E+03 -0.51408836503E+03  0.56594550649E+03  0.17200000000E+03 0. -1.
         -6    1    1    2    0  501 -0.56257184129E+02 -0.15250769978E+03 -0.18553722841E+03  0.30071836057E+03  0.17200000000E+03 0. -1.
</event>
<event>
 4    1  0.3196149E-002  0.2660996E+03  0.7818608E-02  0.1103533E+00
          2   -1    0    0  502    0  0.00000000000E+00  0.00000000000E+00  0.18138972858E+03  0.18138972858E+03  0.00000000000E+00 0. -1.
         -2   -1    0    0    0  501 -0.00000000000E+00 -0.00000000000E+00 -0.45304813741E+03  0.45304813741E+03  0.00000000000E+00 0.  1.
          6    1    1    2  502    0  0.14863313266E+03  0.13832280818E+03 -0.17838744283E+02  0.26669688447E+03  0.17200000000E+03 0. -1.
         -6    1    1    2    0  501 -0.14863313266E+03 -0.13832280818E+03 -0.25381966454E+03  0.36774098152E+03  0.17200000000E+03 0.  1.
</event>
<event>
 4    1  0.3196149E-002  0.1869191E+03  0.7818608E-02  0.1161270E+00
          2   -1    0    0  502    0  0.00000000000E+00  0.00000000000E+00  0.17984876964E+04  0.17984876964E+04  0.00000000000E+00 0. -1.
         -2   -1    0    0    0  501 -0.00000000000E+00 -0.00000000000E+00 -0.33709987916E+02  0.33709987916E+02  0.00000000000E+00 0.  1.
          6    1    1    2  502    0 -0.59425263995E+02  0.42701214736E+02  0.28607280412E+03  0.34172562824E+03  0.17200000000E+03 0.  1.
         -6    1    1    2    0  501  0.59425263995E+02 -0.42701214736E+02  0.14787049043E+04  0.14904720560E+04  0.17200000000E+03 0. -1.
</event>
<event>
 4    1  0.3196149E-002  0.2163821E+03  0.7818608E-02  0.1136609E+00
          2   -1    0    0  502    0  0.00000000000E+00  0.00000000000E+00  0.58484958858E+02  0.58484958858E+02  0.00000000000E+00 0. -1.
         -2   -1    0    0    0  501 -0.00000000000E+00 -0.00000000000E+00 -0.10180026368E+04  0.10180026368E+04  0.00000000000E+00 0.  1.
          6    1    1    2  502    0 -0.12169190252E+03 -0.49277662969E+02 -0.23100568638E+03  0.31651987986E+03  0.17200000000E+03 0. -1.
         -6    1    1    2    0  501  0.12169190252E+03  0.49277662969E+02 -0.72851199161E+03  0.75996771585E+03  0.17200000000E+03 0.  1.
</event>
<event>
 4    1  0.3196149E-002  0.1729281E+03  0.7818608E-02  0.1174828E+00
          1   -1    0    0  502    0  0.00000000000E+00  0.00000000000E+00  0.12494581274E+03  0.12494581274E+03  0.00000000000E+00 0. -1.
         -1   -1    0    0    0  501 -0.00000000000E+00 -0.00000000000E+00 -0.23936157943E+03  0.23936157943E+03  0.00000000000E+00 0.  1.
          6    1    1    2  502    0  0.12818510307E+02 -0.12482164466E+02 -0.59064924442E+02  0.18273692548E+03  0.17200000000E+03 0. -1.
         -6    1    1    2    0  501 -0.12818510307E+02  0.12482164466E+02 -0.55350842246E+02  0.18157046669E+03  0.17200000000E+03 0. -1.
</event>
<event>
 4    1  0.3196149E-002  0.3444698E+03  0.7818608E-02  0.1064908E+00
         -1   -1    0    0    0  501 -0.00000000000E+00  0.00000000000E+00  0.90601717723E+02  0.90601717723E+02  0.00000000000E+00 0.  1.
          1   -1    0    0  502    0  0.00000000000E+00 -0.00000000000E+00 -0.13096908244E+04  0.13096908244E+04  0.00000000000E+00 0. -1.
          6    1    1    2  502    0  0.23965714376E+03  0.17787608773E+03 -0.61135022737E+03  0.70171828368E+03  0.17200000000E+03 0. -1.
         -6    1    1    2    0  501 -0.23965714376E+03 -0.17787608773E+03 -0.60773887931E+03  0.69857425845E+03  0.17200000000E+03 0.  1.
</event>
<event>
 4    1  0.3196149E-002  0.3687778E+03  0.7818608E-02  0.1055161E+00
         -1   -1    0    0    0  501 -0.00000000000E+00  0.00000000000E+00  0.10363370565E+04  0.10363370565E+04  0.00000000000E+00 0.  1.
          1   -1    0    0  502    0  0.00000000000E+00 -0.00000000000E+00 -0.13387874436E+03  0.13387874436E+03  0.00000000000E+00 0. -1.
          6    1    1    2  502    0 -0.18966434380E+03 -0.26540633851E+03  0.36890774700E+03  0.52162248191E+03  0.17200000000E+03 0. -1.
         -6    1    1    2    0  501  0.18966434380E+03  0.26540633851E+03  0.53355056510E+03  0.64859331892E+03  0.17200000000E+03 0.  1.
</event>
<event>
 4    1  0.3196149E-002  0.1887443E+03  0.7818608E-02  0.1159599E+00
         -2   -1    0    0    0  501 -0.00000000000E+00  0.00000000000E+00  0.12447815166E+03  0.12447815166E+03  0.00000000000E+00 0.  1.
          2   -1    0    0  502    0  0.00000000000E+00 -0.00000000000E+00 -0.28626043667E+03  0.28626043667E+03  0.00000000000E+00 0. -1.
          6    1    1    2  502    0  0.10870939959E+02 -0.76956126046E+02 -0.84108855067E+02  0.20663669125E+03  0.17200000000E+03 0. -1.
         -6    1    1    2    0  501 -0.10870939959E+02  0.76956126046E+02 -0.77673429947E+02  0.20410189708E+03  0.17200000000E+03 0. -1.
</event>
<event>
 4    1  0.3196149E-002  0.4119276E+03  0.7818608E-02  0.1039726E+00
         -1   -1    0    0    0  501 -0.00000000000E+00  0.00000000000E+00  0.35174241946E+03  0.35174241946E+03  0.00000000000E+00 0.  1.
          1   -1    0    0  502    0  0.00000000000E+00 -0.00000000000E+00 -0.69997358229E+03  0.69997358229E+03  0.00000000000E+00 0. -1.
          6    1    1    2  502    0  0.19070676211E+03 -0.32207339653E+03 -0.46728587612E+03  0.62292891399E+03  0.17200000000E+03 0. -1.
         -6    1    1    2    0  501 -0.19070676211E+03  0.32207339653E+03  0.11905471329E+03  0.42878708775E+03  0.17200000000E+03 0.  1.
</event>
<event>
 4    1  0.3196149E-002  0.1927881E+03  0.7818608E-02  0.1155970E+00
         -1   -1    0    0    0  501 -0.00000000000E+00  0.00000000000E+00  0.33841428744E+02  0.33841428744E+02  0.00000000000E+00 0.  1.
          1   -1    0    0  502    0  0.00000000000E+00 -0.00000000000E+00 -0.26326939969E+04  0.26326939969E+04  0.00000000000E+00 0. -1.
          6    1    1    2  502    0 -0.56188090005E+02  0.66529390076E+02 -0.28156433897E+03  0.34124146610E+03  0.17200000000E+03 0.  1.
         -6    1    1    2    0  501  0.56188090005E+02 -0.66529390076E+02 -0.23172882292E+04  0.23252939595E+04  0.17200000000E+03 0. -1.
</event>
<event>
 4    1  0.3196149E-002  0.1787986E+03  0.7818608E-02  0.1168971E+00
         -2   -1    0    0    0  501 -0.00000000000E+00  0.00000000000E+00  0.78763112713E+02  0.78763112713E+02  0.00000000000E+00 0.  1.
          2   -1    0    0  502    0  0.00000000000E+00 -0.00000000000E+00 -0.15716049922E+04  0.15716049922E+04  0.00000000000E+00 0. -1.
          6    1    1    2  502    0 -0.11527957438E+02  0.47455591673E+02 -0.14571038432E+04  0.14680328801E+04  0.17200000000E+03 0. -1.
         -6    1    1    2    0  501  0.11527957438E+02 -0.47455591673E+02 -0.35738036247E+02  0.18233522484E+03  0.17200000000E+03 0.  1.
</event>
<event>
 4    1  0.3196149E-002  0.2298284E+03  0.7818608E-02  0.1126761E+00
          1   -1    0    0  502    0  0.00000000000E+00  0.00000000000E+00  0.28957155503E+03  0.28957155503E+03  0.00000000000E+00 0. -1.
         -1   -1    0    0    0  501 -0.00000000000E+00 -0.00000000000E+00 -0.22300088431E+03  0.22300088431E+03  0.00000000000E+00 0.  1.
          6    1    1    2  502    0 -0.13092400476E+03  0.78077019546E+02  0.14262542063E+03  0.27048683261E+03  0.17200000000E+03 0. -1.
         -6    1    1    2    0  501  0.13092400476E+03 -0.78077019546E+02 -0.76054749904E+02  0.24208560673E+03  0.17200000000E+03 0.  1.
</event>
<event>
 4    1  0.3196149E-002  0.2500987E+03  0.7818608E-02  0.1113242E+00
         -2   -1    0    0    0  501 -0.00000000000E+00  0.00000000000E+00  0.17340973489E+03  0.17340973489E+03  0.00000000000E+00 0.  1.
          2   -1    0    0  502    0  0.00000000000E+00 -0.00000000000E+00 -0.37193265466E+03  0.37193265466E+03  0.00000000000E+00 0. -1.
          6    1    1    2  502    0 -0.15532966227E+03 -0.94011062887E+02 -0.51881641339E+02  0.25542335178E+03  0.17200000000E+03 0. -1.
         -6    1    1    2    0  501  0.15532966227E+03  0.94011062887E+02 -0.14664127843E+03  0.28991903777E+03  0.17200000000E+03 0.  1.
</event>
<event>
 4    1  0.3196149E-002  0.3900281E+03  0.7818608E-02  0.1047288E+00
         -2   -1    0    0    0  501 -0.00000000000E+00  0.00000000000E+00  0.10663201034E+03  0.10663201034E+03  0.00000000000E+00 0.  1.
          2   -1    0    0  502    0  0.00000000000E+00 -0.00000000000E+00 -0.14426313487E+04  0.14426313487E+04  0.00000000000E+00 0. -1.
          6    1    1    2  502    0  0.19676148912E+03  0.28952174296E+03 -0.58635759898E+03  0.70422805761E+03  0.17200000000E+03 0. -1.
         -6    1    1    2    0  501 -0.19676148912E+03 -0.28952174296E+03 -0.74964173941E+03  0.84503530146E+03  0.17200000000E+03 0.  1.
</event>
<event>
 4    1  0.3196149E-002  0.1762664E+03  0.7818608E-02  0.1171466E+00
          2   -1    0    0  502    0  0.00000000000E+00  0.00000000000E+00  0.25477487326E+03  0.25477487326E+03  0.00000000000E+00 0. -1.
         -2   -1    0    0    0  501 -0.00000000000E+00 -0.00000000000E+00 -0.29375821357E+03  0.29375821357E+03  0.00000000000E+00 0.  1.
          6    1    1    2  502    0  0.38503048132E+02 -0.18303732519E+01  0.19025718090E+03  0.25936003907E+03  0.17200000000E+03 0. -1.
         -6    1    1    2    0  501 -0.38503048132E+02  0.18303732519E+01 -0.22924052121E+03  0.28917304775E+03  0.17200000000E+03 0.  1.
</event>
<event>
 4    1  0.3196149E-002  0.2762065E+03  0.7818608E-02  0.1097779E+00
          2   -1    0    0  502    0  0.00000000000E+00  0.00000000000E+00  0.48496695624E+03  0.48496695624E+03  0.00000000000E+00 0. -1.
         -2   -1    0    0    0  501 -0.00000000000E+00 -0.00000000000E+00 -0.29371904344E+03  0.29371904344E+03  0.00000000000E+00 0.  1.
          6    1    1    2  502    0 -0.16679391369E+02 -0.21547118586E+03  0.36095513535E+03  0.45450923398E+03  0.17200000000E+03 0. -1.
         -6    1    1    2    0  501  0.16679391369E+02  0.21547118586E+03 -0.16970722256E+03  0.32417676570E+03  0.17200000000E+03 0.  1.
</event>
<event>
 4    1  0.3196149E-002  0.3482056E+03  0.7818608E-02  0.1063354E+00
          1   -1    0    0  502    0  0.00000000000E+00  0.00000000000E+00  0.44310606816E+03  0.44310606816E+03  0.00000000000E+00 0. -1.
         -1   -1    0    0    0  501 -0.00000000000E+00 -0.00000000000E+00 -0.47727058525E+03  0.47727058525E+03  0.00000000000E+00 0.  1.
          6    1    1    2  502    0 -0.30275844706E+03 -0.65897089583E+00  0.28351529129E+03  0.44903010133E+03  0.17200000000E+03 0. -1.
         -6    1    1    2    0  501  0.30275844706E+03  0.65897089583E+00 -0.31767980838E+03  0.47134655208E+03  0.17200000000E+03 0.  1.
</event>
<event>
 4    1  0.3196149E-002  0.1883821E+03  0.7818608E-02  0.1159929E+00
          2   -1    0    0  502    0  0.00000000000E+00  0.00000000000E+00  0.13564303610E+04  0.13564303610E+04  0.00000000000E+00 0. -1.
         -2   -1    0    0    0  501 -0.00000000000E+00 -0.00000000000E+00 -0.27579995168E+02  0.27579995168E+02  0.00000000000E+00 0.  1.
          6    1    1    2  502    0 -0.59945383942E+02  0.48066365023E+02  0.50755198803E+03  0.54138419358E+03  0.17200000000E+03 0. -1.
         -6    1    1    2    0  501  0.59945383942E+02 -0.48066365023E+02  0.82129837779E+03  0.84262616258E+03  0.17200000000E+03 0. -1.
</event>
<event>
 4    1  0.3196149E-002  0.2296565E+03  0.7818608E-02  0.1126882E+00
         -2   -1    0    0    0  501 -0.00000000000E+00  0.00000000000E+00  0.41400843751E+02  0.41400843751E+02  0.00000000000E+00 0.  1.
          2   -1    0    0  502    0  0.00000000000E+00 -0.00000000000E+00 -0.12740096411E+04  0.12740096411E+04  0.00000000000E+00 0. -1.
          6    1    1    2  502    0 -0.13233263932E+03  0.75141114838E+02 -0.61137775800E+03  0.65308872104E+03  0.17200000000E+03 0. -1.
         -6    1    1    2    0  501  0.13233263932E+03 -0.75141114838E+02 -0.62123103932E+03  0.66232176379E+03  0.17200000000E+03 0.  1.
</event>
<event>
 4    1  0.3196149E-002  0.3938032E+03  0.7818608E-02  0.1045947E+00
          1   -1    0    0  502    0  0.00000000000E+00  0.00000000000E+00  0.34172077020E+03  0.34172077020E+03  0.00000000000E+00 0. -1.
         -1   -1    0    0    0  501 -0.00000000000E+00 -0.00000000000E+00 -0.45460379799E+03  0.45460379799E+03  0.00000000000E+00 0.  1.
          6    1    1    2  502    0  0.11298818593E+03  0.33575378735E+03 -0.72936714740E+02  0.40050056209E+03  0.17200000000E+03 0. -1.
         -6    1    1    2    0  501 -0.11298818593E+03 -0.33575378735E+03 -0.39946313053E+02  0.39582400610E+03  0.17200000000E+03 0. -1.
</event>
<event>
 4    1  0.3196149E-002  0.6471424E+03  0.7818608E-02  0.9812156E-01
         -1   -1    0    0    0  501 -0.00000000000E+00  0.00000000000E+00  0.80419359378E+03  0.80419359378E+03  0.00000000000E+00 0.  1.
          1   -1    0    0  502    0  0.00000000000E+00 -0.00000000000E+00 -0.73525122259E+03  0.73525122259E+03  0.00000000000E+00 0. -1.
          6    1    1    2  502    0 -0.29495143795E+03 -0.54973900039E+03 -0.38126628782E+03  0.75110405506E+03  0.17200000000E+03 0. -1.
         -6    1    1    2    0  501  0.29495143795E+03  0.54973900039E+03  0.45020865901E+03  0.78834076131E+03  0.17200000000E+03 0.  1.
</event>
<event>
 4    1  0.3196149E-002  0.1757847E+03  0.7818608E-02  0.1171946E+00
          1   -1    0    0  502    0  0.00000000000E+00  0.00000000000E+00  0.37248139973E+04  0.37248139973E+04  0.00000000000E+00 0. -1.
         -1   -1    0    0    0  501 -0.00000000000E+00 -0.00000000000E+00 -0.92303124126E+01  0.92303124126E+01  0.00000000000E+00 0.  1.
          6    1    1    2  502    0 -0.16224433094E+02 -0.32450633244E+02  0.24518597097E+04  0.24581530286E+04  0.17200000000E+03 0. -1.
         -6    1    1    2    0  501  0.16224433094E+02  0.32450633244E+02  0.12637239752E+04  0.12758912811E+04  0.17200000000E+03 0.  1.
</event>
<event>
 4    1  0.3196149E-002  0.6089395E+03  0.7818608E-02  0.9887031E-01
          2   -1    0    0  502    0  0.00000000000E+00  0.00000000000E+00  0.18943076294E+04  0.18943076294E+04  0.00000000000E+00 0. -1.
         -2   -1    0    0    0  501 -0.00000000000E+00 -0.00000000000E+00 -0.25553999902E+03  0.25553999902E+03  0.00000000000E+00 0.  1.
          6    1    1    2  502    0 -0.35144522959E+02  0.58308501837E+03  0.13393428308E+04  0.14712737660E+04  0.17200000000E+03 0. -1.
         -6    1    1    2    0  501  0.35144522959E+02 -0.58308501837E+03  0.29942479960E+03  0.67857386242E+03  0.17200000000E+03 0.  1.
</event>
<event>
 4    1  0.3196149E-002  0.2362229E+03  0.7818608E-02  0.1122335E+00
          2   -1    0    0  502    0  0.00000000000E+00  0.00000000000E+00  0.46585240262E+03  0.46585240262E+03  0.00000000000E+00 0. -1.
         -2   -1    0    0    0  501 -0.00000000000E+00 -0.00000000000E+00 -0.32358955838E+03  0.32358955838E+03  0.00000000000E+00 0.  1.
          6    1    1    2  502    0  0.30975137235E+02  0.15892696682E+03  0.38438925838E+03  0.45117218650E+03  0.17200000000E+03 0. -1.
         -6    1    1    2    0  501 -0.30975137235E+02 -0.15892696682E+03 -0.24212641415E+03  0.33826977449E+03  0.17200000000E+03 0.  1.
</event>
<event>
 4    1  0.3196149E-002  0.2259970E+03  0.7818608E-02  0.1129489E+00
          2   -1    0    0  502    0  0.00000000000E+00  0.00000000000E+00  0.34269465762E+04  0.34269465762E+04  0.00000000000E+00 0. -1.
         -2   -1    0    0    0  501 -0.00000000000E+00 -0.00000000000E+00 -0.17491154545E+02  0.17491154545E+02  0.00000000000E+00 0.  1.
          6    1    1    2  502    0  0.14102764910E+03  0.40022968011E+02  0.10423520030E+04  0.10665703605E+04  0.17200000000E+03 0. -1.
         -6    1    1    2    0  501 -0.14102764910E+03 -0.40022968011E+02  0.23671034186E+04  0.23778673702E+04  0.17200000000E+03 0. -1.
</event>
<event>
 4    1  0.3196149E-002  0.3308881E+03  0.7818608E-02  0.1070745E+00
         -2   -1    0    0    0  501 -0.00000000000E+00  0.00000000000E+00  0.74555695670E+02  0.74555695670E+02  0.00000000000E+00 0.  1.
          2   -1    0    0  502    0  0.00000000000E+00 -0.00000000000E+00 -0.14884540906E+04  0.14884540906E+04  0.00000000000E+00 0. -1.
          6    1    1    2  502    0  0.14764855577E+03 -0.24104535917E+03 -0.79737642417E+03  0.86330534750E+03  0.17200000000E+03 0. -1.
         -6    1    1    2    0  501 -0.14764855577E+03  0.24104535917E+03 -0.61652197071E+03  0.69970443872E+03  0.17200000000E+03 0.  1.
</event>
<event>
 4    1  0.3196149E-002  0.4529448E+03  0.7818608E-02  0.1026848E+00
         -2   -1    0    0    0  501 -0.00000000000E+00  0.00000000000E+00  0.22809412154E+03  0.22809412154E+03  0.00000000000E+00 0.  1.
          2   -1    0    0  502    0  0.00000000000E+00 -0.00000000000E+00 -0.12355852460E+04  0.12355852460E+04  0.00000000000E+00 0. -1.
          6    1    1    2  502    0  0.21693717785E+03  0.35848742769E+03 -0.88545897943E+03  0.99458362102E+03  0.17200000000E+03 0. -1.
         -6    1    1    2    0  501 -0.21693717785E+03 -0.35848742769E+03 -0.12203214499E+03  0.46909574647E+03  0.17200000000E+03 0.  1.
</event>
<event>
 4    1  0.3196149E-002  0.1838768E+03  0.7818608E-02  0.1164103E+00
          2   -1    0    0  502    0  0.00000000000E+00  0.00000000000E+00  0.31728953654E+03  0.31728953654E+03  0.00000000000E+00 0. -1.
         -2   -1    0    0    0  501 -0.00000000000E+00 -0.00000000000E+00 -0.23555663538E+03  0.23555663538E+03  0.00000000000E+00 0.  1.
          6    1    1    2  502    0 -0.59121424820E+02  0.27043236599E+02  0.24542338434E+03  0.30666482860E+03  0.17200000000E+03 0. -1.
         -6    1    1    2    0  501  0.59121424820E+02 -0.27043236599E+02 -0.16369048318E+03  0.24618134333E+03  0.17200000000E+03 0.  1.
</event>
<event>
 4    1  0.3196149E-002  0.1853338E+03  0.7818608E-02  0.1162739E+00
         -2   -1    0    0    0  501 -0.00000000000E+00  0.00000000000E+00  0.17379720044E+02  0.17379720044E+02  0.00000000000E+00 0.  1.
          2   -1    0    0  502    0  0.00000000000E+00 -0.00000000000E+00 -0.20288309720E+04  0.20288309720E+04  0.00000000000E+00 0. -1.
          6    1    1    2  502    0  0.16119286371E+02 -0.67117678087E+02 -0.84119388645E+03  0.86136854406E+03  0.17200000000E+03 0. -1.
         -6    1    1    2    0  501 -0.16119286371E+02  0.67117678087E+02 -0.11702573655E+04  0.11848421480E+04  0.17200000000E+03 0. -1.
</event>
<event>
 4    1  0.3196149E-002  0.2089954E+03  0.7818608E-02  0.1142364E+00
          3   -1    0    0  502    0  0.00000000000E+00  0.00000000000E+00  0.99261680093E+02  0.99261680093E+02  0.00000000000E+00 0. -1.
         -3   -1    0    0    0  501 -0.00000000000E+00 -0.00000000000E+00 -0.64885713983E+03  0.64885713983E+03  0.00000000000E+00 0.  1.
          6    1    1    2  502    0  0.96256942900E+02 -0.69495791805E+02 -0.62595672873E+02  0.21816801415E+03  0.17200000000E+03 0. -1.
         -6    1    1    2    0  501 -0.96256942900E+02  0.69495791805E+02 -0.48699978686E+03  0.52995080577E+03  0.17200000000E+03 0.  1.
</event>
<event>
 4    1  0.3196149E-002  0.1863232E+03  0.7818608E-02  0.1161820E+00
          2   -1    0    0  502    0  0.00000000000E+00  0.00000000000E+00  0.63441773126E+03  0.63441773126E+03  0.00000000000E+00 0. -1.
         -2   -1    0    0    0  501 -0.00000000000E+00 -0.00000000000E+00 -0.95092295726E+02  0.95092295726E+02  0.00000000000E+00 0.  1.
          6    1    1    2  502    0 -0.61284356067E+01 -0.71377759999E+02  0.50732584849E+03  0.54045893358E+03  0.17200000000E+03 0. -1.
         -6    1    1    2    0  501  0.61284356067E+01  0.71377759999E+02  0.31999587045E+02  0.18905109340E+03  0.17200000000E+03 0.  1.
</event>
<event>
 4    1  0.3196149E-002  0.1837046E+03  0.7818608E-02  0.1164265E+00
          1   -1    0    0  502    0  0.00000000000E+00  0.00000000000E+00  0.10646453342E+04  0.10646453342E+04  0.00000000000E+00 0. -1.
         -1   -1    0    0    0  501 -0.00000000000E+00 -0.00000000000E+00 -0.33105312724E+02  0.33105312724E+02  0.00000000000E+00 0.  1.
          6    1    1    2  502    0  0.62938625670E+02 -0.14216731100E+02  0.62892735218E+03  0.65520760096E+03  0.17200000000E+03 0. -1.
         -6    1    1    2    0  501 -0.62938625670E+02  0.14216731100E+02  0.40261266926E+03  0.44254304592E+03  0.17200000000E+03 0.  1.
</event>
<event>
 4    1  0.3196149E-002  0.1992393E+03  0.7818608E-02  0.1150382E+00
         -2   -1    0    0    0  501 -0.00000000000E+00  0.00000000000E+00  0.11919806511E+03  0.11919806511E+03  0.00000000000E+00 0.  1.
          2   -1    0    0  502    0  0.00000000000E+00 -0.00000000000E+00 -0.47988888759E+03  0.47988888759E+03  0.00000000000E+00 0. -1.
          6    1    1    2  502    0 -0.92799041388E+02  0.38738272444E+02 -0.34605296757E+03  0.39931062120E+03  0.17200000000E+03 0. -1.
         -6    1    1    2    0  501  0.92799041388E+02 -0.38738272444E+02 -0.14637854906E+02  0.19977633151E+03  0.17200000000E+03 0.  1.
</event>
<event>
 4    1  0.3196149E-002  0.2374085E+03  0.7818608E-02  0.1121531E+00
         -2   -1    0    0    0  501 -0.00000000000E+00  0.00000000000E+00  0.60195324729E+02  0.60195324729E+02  0.00000000000E+00 0.  1.
          2   -1    0    0  502    0  0.00000000000E+00 -0.00000000000E+00 -0.12077216681E+04  0.12077216681E+04  0.00000000000E+00 0. -1.
          6    1    1    2  502    0 -0.16312787308E+03  0.12964618601E+02 -0.87428386221E+03  0.90594428970E+03  0.17200000000E+03 0. -1.
         -6    1    1    2    0  501  0.16312787308E+03 -0.12964618601E+02 -0.27324248120E+03  0.36197270317E+03  0.17200000000E+03 0.  1.
</event>
<event>
 4    1  0.3196149E-002  0.1739382E+03  0.7818608E-02  0.1173802E+00
         -2   -1    0    0    0  501 -0.00000000000E+00  0.00000000000E+00  0.72623717226E+02  0.72623717226E+02  0.00000000000E+00 0.  1.
          2   -1    0    0  502    0  0.00000000000E+00 -0.00000000000E+00 -0.41919504005E+03  0.41919504005E+03  0.00000000000E+00 0. -1.
          6    1    1    2  502    0 -0.23537238322E+02  0.10793575087E+02 -0.19266137789E+03  0.25956291989E+03  0.17200000000E+03 0. -1.
         -6    1    1    2    0  501  0.23537238322E+02 -0.10793575087E+02 -0.15390994493E+03  0.23225583739E+03  0.17200000000E+03 0. -1.
</event>
<event>
 4    1  0.3196149E-002  0.2240676E+03  0.7818608E-02  0.1130886E+00
          1   -1    0    0  502    0  0.00000000000E+00  0.00000000000E+00  0.21561234112E+03  0.21561234112E+03  0.00000000000E+00 0. -1.
         -1   -1    0    0    0  501 -0.00000000000E+00 -0.00000000000E+00 -0.23654636332E+03  0.23654636332E+03  0.00000000000E+00 0.  1.
          6    1    1    2  502    0  0.10782643090E+03  0.94846005654E+02  0.17776945895E+02  0.22477171484E+03  0.17200000000E+03 0. -1.
         -6    1    1    2    0  501 -0.10782643090E+03 -0.94846005654E+02 -0.38710968097E+02  0.22738698960E+03  0.17200000000E+03 0.  1.
</event>
<event>
 4    1  0.3196149E-002  0.2192397E+03  0.7818608E-02  0.1134451E+00
          1   -1    0    0  502    0  0.00000000000E+00  0.00000000000E+00  0.77586425264E+03  0.77586425264E+03  0.00000000000E+00 0. -1.
         -1   -1    0    0    0  501 -0.00000000000E+00 -0.00000000000E+00 -0.64412229487E+02  0.64412229487E+02  0.00000000000E+00 0.  1.
          6    1    1    2  502    0  0.10139596624E+03  0.90558752627E+02  0.27360932677E+03  0.35061102855E+03  0.17200000000E+03 0. -1.
         -6    1    1    2    0  501 -0.10139596624E+03 -0.90558752627E+02  0.43784269638E+03  0.48966545357E+03  0.17200000000E+03 0.  1.
</event>
<event>
 4    1  0.3196149E-002  0.2074481E+03  0.7818608E-02  0.1143603E+00
         -2   -1    0    0    0  501 -0.00000000000E+00  0.00000000000E+00  0.62950531982E+02  0.62950531982E+02  0.00000000000E+00 0.  1.
          2   -1    0    0  502    0  0.00000000000E+00 -0.00000000000E+00 -0.93302837807E+03  0.93302837807E+03  0.00000000000E+00 0. -1.
          6    1    1    2  502    0 -0.38894690233E+02 -0.10926068409E+03 -0.69250617444E+03  0.72291043405E+03  0.17200000000E+03 0. -1.
         -6    1    1    2    0  501  0.38894690233E+02  0.10926068409E+03 -0.17757167164E+03  0.27306847600E+03  0.17200000000E+03 0.  1.
</event>
<event>
 4    1  0.3196149E-002  0.2005325E+03  0.7818608E-02  0.1149291E+00
         -1   -1    0    0    0  501 -0.00000000000E+00  0.00000000000E+00  0.12721522890E+03  0.12721522890E+03  0.00000000000E+00 0.  1.
          1   -1    0    0  502    0  0.00000000000E+00 -0.00000000000E+00 -0.35347324895E+03  0.35347324895E+03  0.00000000000E+00 0. -1.
          6    1    1    2  502    0 -0.52733924760E+02 -0.88591323054E+02 -0.19127568348E+03  0.27712754542E+03  0.17200000000E+03 0. -1.
         -6    1    1    2    0  501  0.52733924760E+02  0.88591323054E+02 -0.34982336572E+02  0.20356093243E+03  0.17200000000E+03 0.  1.
</event>
<event>
 4    1  0.3196149E-002  0.2037491E+03  0.7818608E-02  0.1146614E+00
         -2   -1    0    0    0  501 -0.00000000000E+00  0.00000000000E+00  0.39579374525E+02  0.39579374525E+02  0.00000000000E+00 0.  1.
          2   -1    0    0  502    0  0.00000000000E+00 -0.00000000000E+00 -0.20810353153E+04  0.20810353153E+04  0.00000000000E+00 0. -1.
          6    1    1    2  502    0 -0.10892058770E+03  0.81238989393E+01 -0.17674625861E+04  0.17791676946E+04  0.17200000000E+03 0. -1.
         -6    1    1    2    0  501  0.10892058770E+03 -0.81238989393E+01 -0.27399335468E+03  0.34144699525E+03  0.17200000000E+03 0.  1.
</event>
<event>
 4    1  0.3196149E-002  0.1721958E+03  0.7818608E-02  0.1175577E+00
          2   -1    0    0  502    0  0.00000000000E+00  0.00000000000E+00  0.34723148343E+03  0.34723148343E+03  0.00000000000E+00 0. -1.
         -2   -1    0    0    0  501 -0.00000000000E+00 -0.00000000000E+00 -0.19794258555E+03  0.19794258555E+03  0.00000000000E+00 0.  1.
          6    1    1    2  502    0 -0.37150235566E+01 -0.73215728176E+01  0.28018903029E+03  0.32887277103E+03  0.17200000000E+03 0. -1.
         -6    1    1    2    0  501  0.37150235566E+01  0.73215728176E+01 -0.13090013242E+03  0.21630129795E+03  0.17200000000E+03 0.  1.
</event>
<event>
 4    1  0.3196149E-002  0.2117029E+03  0.7818608E-02  0.1140225E+00
         -1   -1    0    0    0  501 -0.00000000000E+00  0.00000000000E+00  0.47806449059E+03  0.47806449059E+03  0.00000000000E+00 0.  1.
          1   -1    0    0  502    0  0.00000000000E+00 -0.00000000000E+00 -0.10100093167E+03  0.10100093167E+03  0.00000000000E+00 0. -1.
          6    1    1    2  502    0 -0.49789243946E+01 -0.12332602096E+03  0.11094995841E+03  0.23901462383E+03  0.17200000000E+03 0. -1.
         -6    1    1    2    0  501  0.49789243946E+01  0.12332602096E+03  0.26611360052E+03  0.34005079843E+03  0.17200000000E+03 0.  1.
</event>
<event>
 4    1  0.3196149E-002  0.2318270E+03  0.7818608E-02  0.1125360E+00
          1   -1    0    0  502    0  0.00000000000E+00  0.00000000000E+00  0.52827020447E+03  0.52827020447E+03  0.00000000000E+00 0. -1.
         -1   -1    0    0    0  501 -0.00000000000E+00 -0.00000000000E+00 -0.13342288188E+03  0.13342288188E+03  0.00000000000E+00 0.  1.
          6    1    1    2  502    0 -0.13793037350E+03  0.71658780289E+02  0.36190094878E+02  0.23463480495E+03  0.17200000000E+03 0.  1.
         -6    1    1    2    0  501  0.13793037350E+03 -0.71658780289E+02  0.35865722771E+03  0.42705828140E+03  0.17200000000E+03 0. -1.
</event>
<event>
 4    1  0.3196149E-002  0.2082377E+03  0.7818608E-02  0.1142969E+00
         -1   -1    0    0    0  501 -0.00000000000E+00  0.00000000000E+00  0.23007338287E+03  0.23007338287E+03  0.00000000000E+00 0.  1.
          1   -1    0    0  502    0  0.00000000000E+00 -0.00000000000E+00 -0.35516196763E+03  0.35516196763E+03  0.00000000000E+00 0. -1.
          6    1    1    2  502    0 -0.82660130446E+02  0.83344191988E+02 -0.26300944284E+03  0.33546522700E+03  0.17200000000E+03 0. -1.
         -6    1    1    2    0  501  0.82660130446E+02 -0.83344191988E+02  0.13792085807E+03  0.24977012350E+03  0.17200000000E+03 0.  1.
</event>
<event>
 4    1  0.3196149E-002  0.2554091E+03  0.7818608E-02  0.1109933E+00
          2   -1    0    0  502    0  0.00000000000E+00  0.00000000000E+00  0.19372125216E+03  0.19372125216E+03  0.00000000000E+00 0. -1.
         -2   -1    0    0    0  501 -0.00000000000E+00 -0.00000000000E+00 -0.37899198197E+03  0.37899198197E+03  0.00000000000E+00 0.  1.
          6    1    1    2  502    0  0.18406512243E+03 -0.42069260614E+02  0.29768034553E+01  0.25542641473E+03  0.17200000000E+03 0. -1.
         -6    1    1    2    0  501 -0.18406512243E+03  0.42069260614E+02 -0.18824753326E+03  0.31728681940E+03  0.17200000000E+03 0.  1.
</event>
<event>
 4    1  0.3196149E-002  0.2689677E+03  0.7818608E-02  0.1101872E+00
          2   -1    0    0  502    0  0.00000000000E+00  0.00000000000E+00  0.12702659374E+04  0.12702659374E+04  0.00000000000E+00 0. -1.
         -2   -1    0    0    0  501 -0.00000000000E+00 -0.00000000000E+00 -0.59288140499E+02  0.59288140499E+02  0.00000000000E+00 0.  1.
          6    1    1    2  502    0  0.14152194926E+03 -0.15076863320E+03  0.47351705297E+03  0.54457510256E+03  0.17200000000E+03 0. -1.
         -6    1    1    2    0  501 -0.14152194926E+03  0.15076863320E+03  0.73746074391E+03  0.78497897532E+03  0.17200000000E+03 0.  1.
</event>
<event>
 4    1  0.3196149E-002  0.2849961E+03  0.7818608E-02  0.1092991E+00
          2   -1    0    0  502    0  0.00000000000E+00  0.00000000000E+00  0.39460063403E+03  0.39460063403E+03  0.00000000000E+00 0. -1.
         -2   -1    0    0    0  501 -0.00000000000E+00 -0.00000000000E+00 -0.86313341767E+03  0.86313341767E+03  0.00000000000E+00 0.  1.
          6    1    1    2  502    0 -0.22692905334E+03 -0.11916434579E+02  0.31451705677E+03  0.42443347613E+03  0.17200000000E+03 0. -1.
         -6    1    1    2    0  501  0.22692905334E+03  0.11916434579E+02 -0.78304984041E+03  0.83330057556E+03  0.17200000000E+03 0.  1.
</event>
<event>
 4    1  0.3196149E-002  0.2332629E+03  0.7818608E-02  0.1124364E+00
         -1   -1    0    0    0  501 -0.00000000000E+00  0.00000000000E+00  0.99904078261E+02  0.99904078261E+02  0.00000000000E+00 0.  1.
          1   -1    0    0  502    0  0.00000000000E+00 -0.00000000000E+00 -0.57192651605E+03  0.57192651605E+03  0.00000000000E+00 0. -1.
          6    1    1    2  502    0  0.95859886119E+02  0.12505390497E+03 -0.30938594208E+03  0.38746775101E+03  0.17200000000E+03 0. -1.
         -6    1    1    2    0  501 -0.95859886119E+02 -0.12505390497E+03 -0.16263649571E+03  0.28436284330E+03  0.17200000000E+03 0.  1.
</event>
<event>
 4    1  0.3196149E-002  0.1794102E+03  0.7818608E-02  0.1168375E+00
         -1   -1    0    0    0  501 -0.00000000000E+00  0.00000000000E+00  0.47857521301E+02  0.47857521301E+02  0.00000000000E+00 0.  1.
          1   -1    0    0  502    0  0.00000000000E+00 -0.00000000000E+00 -0.67652181843E+03  0.67652181843E+03  0.00000000000E+00 0. -1.
          6    1    1    2  502    0 -0.14635907181E+02 -0.48885860251E+02 -0.28668730200E+03  0.33819764375E+03  0.17200000000E+03 0. -1.
         -6    1    1    2    0  501  0.14635907181E+02  0.48885860251E+02 -0.34197699513E+03  0.38618169598E+03  0.17200000000E+03 0. -1.
</event>
<event>
 4    1  0.3196149E-002  0.1787551E+03  0.7818608E-02  0.1169013E+00
         -2   -1    0    0    0  501 -0.00000000000E+00  0.00000000000E+00  0.46603012196E+02  0.46603012196E+02  0.00000000000E+00 0.  1.
          2   -1    0    0  502    0  0.00000000000E+00 -0.00000000000E+00 -0.71296609427E+03  0.71296609427E+03  0.00000000000E+00 0. -1.
          6    1    1    2  502    0  0.44528413941E+01  0.48472289021E+02 -0.40751873105E+03  0.44499989523E+03  0.17200000000E+03 0. -1.
         -6    1    1    2    0  501 -0.44528413941E+01 -0.48472289021E+02 -0.25884435103E+03  0.31456921124E+03  0.17200000000E+03 0.  1.
</event>
<event>
 4    1  0.3196149E-002  0.5091515E+03  0.7818608E-02  0.1011417E+00
          2   -1    0    0  502    0  0.00000000000E+00  0.00000000000E+00  0.28493883256E+04  0.28493883256E+04  0.00000000000E+00 0. -1.
         -2   -1    0    0    0  501 -0.00000000000E+00 -0.00000000000E+00 -0.91655073096E+02  0.91655073096E+02  0.00000000000E+00 0.  1.
          6    1    1    2  502    0  0.47809382376E+03  0.32825990135E+02  0.12525950762E+04  0.13521204366E+04  0.17200000000E+03 0. -1.
         -6    1    1    2    0  501 -0.47809382376E+03 -0.32825990135E+02  0.15051381762E+04  0.15889229621E+04  0.17200000000E+03 0.  1.
</event>
<event>
 4    1  0.3196149E-002  0.2098896E+03  0.7818608E-02  0.1141653E+00
          1   -1    0    0  502    0  0.00000000000E+00  0.00000000000E+00  0.62433974600E+03  0.62433974600E+03  0.00000000000E+00 0. -1.
         -1   -1    0    0    0  501 -0.00000000000E+00 -0.00000000000E+00 -0.95374367395E+02  0.95374367395E+02  0.00000000000E+00 0.  1.
          6    1    1    2  502    0  0.12026985234E+03  0.21936510033E+01  0.80929273716E+02  0.22495154330E+03  0.17200000000E+03 0.  1.
         -6    1    1    2    0  501 -0.12026985234E+03 -0.21936510033E+01  0.44803610489E+03  0.49476257010E+03  0.17200000000E+03 0. -1.
</event>
<event>
 4    1  0.3196149E-002  0.1804939E+03  0.7818608E-02  0.1167326E+00
         -1   -1    0    0    0  501 -0.00000000000E+00  0.00000000000E+00  0.23339927851E+03  0.23339927851E+03  0.00000000000E+00 0.  1.
          1   -1    0    0  502    0  0.00000000000E+00 -0.00000000000E+00 -0.15718973217E+03  0.15718973217E+03  0.00000000000E+00 0. -1.
          6    1    1    2  502    0 -0.29312046816E+02  0.46204589832E+02  0.10346963263E+03  0.20804813166E+03  0.17200000000E+03 0.  1.
         -6    1    1    2    0  501  0.29312046816E+02 -0.46204589832E+02 -0.27260086287E+02  0.18254087902E+03  0.17200000000E+03 0. -1.
</event>
<event>
 4    1  0.3196149E-002  0.2636966E+03  0.7818608E-02  0.1104942E+00
         -1   -1    0    0    0  501 -0.00000000000E+00  0.00000000000E+00  0.16082294166E+03  0.16082294166E+03  0.00000000000E+00 0.  1.
          1   -1    0    0  502    0  0.00000000000E+00 -0.00000000000E+00 -0.54369337614E+03  0.54369337614E+03  0.00000000000E+00 0. -1.
          6    1    1    2  502    0 -0.18982720179E+03  0.62590049566E+02 -0.35082729276E+03  0.43888001799E+03  0.17200000000E+03 0.  1.
         -6    1    1    2    0  501  0.18982720179E+03 -0.62590049566E+02 -0.32043141721E+02  0.26563629981E+03  0.17200000000E+03 0.  1.
</event>
<event>
 4    1  0.3196149E-002  0.1753305E+03  0.7818608E-02  0.1172400E+00
          1   -1    0    0  502    0  0.00000000000E+00  0.00000000000E+00  0.24872040309E+04  0.24872040309E+04  0.00000000000E+00 0. -1.
         -1   -1    0    0    0  501 -0.00000000000E+00 -0.00000000000E+00 -0.17408636719E+02  0.17408636719E+02  0.00000000000E+00 0.  1.
          6    1    1    2  502    0  0.15013117689E+02 -0.30518932154E+02  0.56047327155E+03  0.58725725798E+03  0.17200000000E+03 0.  1.
         -6    1    1    2    0  501 -0.15013117689E+02  0.30518932154E+02  0.19093221226E+04  0.19173554097E+04  0.17200000000E+03 0. -1.
</event>
<event>
 4    1  0.3196149E-002  0.1969363E+03  0.7818608E-02  0.1152350E+00
          2   -1    0    0  502    0  0.00000000000E+00  0.00000000000E+00  0.62601758939E+03  0.62601758939E+03  0.00000000000E+00 0. -1.
         -2   -1    0    0    0  501 -0.00000000000E+00 -0.00000000000E+00 -0.16284462134E+03  0.16284462134E+03  0.00000000000E+00 0.  1.
          6    1    1    2  502    0  0.13724009085E+01  0.95906274999E+02  0.54205045602E+03  0.57671708310E+03  0.17200000000E+03 0. -1.
         -6    1    1    2    0  501 -0.13724009085E+01 -0.95906274999E+02 -0.78877487977E+02  0.21214512763E+03  0.17200000000E+03 0.  1.
</event>
<event>
 4    1  0.3196149E-002  0.1756653E+03  0.7818608E-02  0.1172065E+00
         -2   -1    0    0    0  501 -0.00000000000E+00  0.00000000000E+00  0.24227293870E+02  0.24227293870E+02  0.00000000000E+00 0.  1.
          2   -1    0    0  502    0  0.00000000000E+00 -0.00000000000E+00 -0.12798644596E+04  0.12798644596E+04  0.00000000000E+00 0. -1.
          6    1    1    2  502    0  0.26609879913E+02 -0.23795013690E+02 -0.67307359295E+03  0.69561940018E+03  0.17200000000E+03 0.  1.
         -6    1    1    2    0  501 -0.26609879913E+02  0.23795013690E+02 -0.58256357282E+03  0.60847235333E+03  0.17200000000E+03 0. -1.
</event>
<event>
 4    1  0.3196149E-002  0.2426099E+03  0.7818608E-02  0.1118066E+00
         -2   -1    0    0    0  501 -0.00000000000E+00  0.00000000000E+00  0.10794828458E+03  0.10794828458E+03  0.00000000000E+00 0.  1.
          2   -1    0    0  502    0  0.00000000000E+00 -0.00000000000E+00 -0.14772034771E+04  0.14772034771E+04  0.00000000000E+00 0. -1.
          6    1    1    2  502    0 -0.15948471329E+03  0.61969178077E+02 -0.13141572434E+04  0.13363640272E+04  0.17200000000E+03 0. -1.
         -6    1    1    2    0  501  0.15948471329E+03 -0.61969178077E+02 -0.55097949059E+02  0.24878773442E+03  0.17200000000E+03 0.  1.
</event>
<event>
 4    1  0.3196149E-002  0.3147590E+03  0.7818608E-02  0.1078087E+00
         -3   -1    0    0    0  501 -0.00000000000E+00  0.00000000000E+00  0.31314461757E+03  0.31314461757E+03  0.00000000000E+00 0.  1.
          3   -1    0    0  502    0  0.00000000000E+00 -0.00000000000E+00 -0.43176417164E+03  0.43176417164E+03  0.00000000000E+00 0. -1.
          6    1    1    2  502    0  0.19111185373E+03  0.18156401106E+03 -0.25184921308E+03  0.40311444638E+03  0.17200000000E+03 0. -1.
         -6    1    1    2    0  501 -0.19111185373E+03 -0.18156401106E+03  0.13322965902E+03  0.34179434283E+03  0.17200000000E+03 0.  1.
</event>
<event>
 4    1  0.3196149E-002  0.2787736E+03  0.7818608E-02  0.1096361E+00
          1   -1    0    0  502    0  0.00000000000E+00  0.00000000000E+00  0.10327477265E+04  0.10327477265E+04  0.00000000000E+00 0. -1.
         -1   -1    0    0    0  501 -0.00000000000E+00 -0.00000000000E+00 -0.13229042876E+03  0.13229042876E+03  0.00000000000E+00 0.  1.
          6    1    1    2  502    0  0.15174818108E+03 -0.15843994564E+03  0.83273234367E+03  0.87815595598E+03  0.17200000000E+03 0. -1.
         -6    1    1    2    0  501 -0.15174818108E+03  0.15843994564E+03  0.67724954027E+02  0.28688219922E+03  0.17200000000E+03 0.  1.
</event>
<event>
 4    1  0.3196149E-002  0.1968118E+03  0.7818608E-02  0.1152457E+00
         -2   -1    0    0    0  501 -0.00000000000E+00  0.00000000000E+00  0.23414174542E+02  0.23414174542E+02  0.00000000000E+00 0.  1.
          2   -1    0    0  502    0  0.00000000000E+00 -0.00000000000E+00 -0.17108122579E+04  0.17108122579E+04  0.00000000000E+00 0. -1.
          6    1    1    2  502    0 -0.94373537877E+02 -0.15637469266E+02 -0.10012461140E+04  0.10204061328E+04  0.17200000000E+03 0. -1.
         -6    1    1    2    0  501  0.94373537877E+02  0.15637469266E+02 -0.68615196932E+03  0.71382029958E+03  0.17200000000E+03 0.  1.
</event>
<event>
 4    1  0.3196149E-002  0.3168577E+03  0.7818608E-02  0.1077105E+00
          1   -1    0    0  502    0  0.00000000000E+00  0.00000000000E+00  0.25566709833E+03  0.25566709833E+03  0.00000000000E+00 0. -1.
         -1   -1    0    0    0  501 -0.00000000000E+00 -0.00000000000E+00 -0.78291526685E+03  0.78291526685E+03  0.00000000000E+00 0.  1.
          6    1    1    2  502    0  0.26405672455E+03 -0.32997779178E+02  0.10299014244E+03  0.33317529417E+03  0.17200000000E+03 0. -1.
         -6    1    1    2    0  501 -0.26405672455E+03  0.32997779178E+02 -0.63023831097E+03  0.70540707100E+03  0.17200000000E+03 0.  1.
</event>
<event>
 4    1  0.3196149E-002  0.5793961E+03  0.7818608E-02  0.9949099E-01
         -2   -1    0    0    0  501 -0.00000000000E+00  0.00000000000E+00  0.25332780825E+03  0.25332780825E+03  0.00000000000E+00 0.  1.
          2   -1    0    0  502    0  0.00000000000E+00 -0.00000000000E+00 -0.13861922754E+04  0.13861922754E+04  0.00000000000E+00 0. -1.
          6    1    1    2  502    0 -0.46045082938E+03 -0.30675871425E+03 -0.73844268509E+03  0.93861465693E+03  0.17200000000E+03 0. -1.
         -6    1    1    2    0  501  0.46045082938E+03  0.30675871425E+03 -0.39442178206E+03  0.70090542672E+03  0.17200000000E+03 0.  1.
</event>
<event>
 4    1  0.3196149E-002  0.4408470E+03  0.7818608E-02  0.1030487E+00
          2   -1    0    0  502    0  0.00000000000E+00  0.00000000000E+00  0.14256259010E+04  0.14256259010E+04  0.00000000000E+00 0. -1.
         -2   -1    0    0    0  501 -0.00000000000E+00 -0.00000000000E+00 -0.25431551795E+03  0.25431551795E+03  0.00000000000E+00 0.  1.
          6    1    1    2  502    0  0.36438857728E+03 -0.17883809501E+03  0.11577978122E+04  0.12388873530E+04  0.17200000000E+03 0. -1.
         -6    1    1    2    0  501 -0.36438857728E+03  0.17883809501E+03  0.13512570796E+02  0.44105406590E+03  0.17200000000E+03 0.  1.
</event>
<event>
 4    1  0.3196149E-002  0.2228110E+03  0.7818608E-02  0.1131805E+00
          2   -1    0    0  502    0  0.00000000000E+00  0.00000000000E+00  0.12083939840E+04  0.12083939840E+04  0.00000000000E+00 0. -1.
         -2   -1    0    0    0  501 -0.00000000000E+00 -0.00000000000E+00 -0.44840040536E+02  0.44840040536E+02  0.00000000000E+00 0.  1.
          6    1    1    2  502    0  0.43439867193E+01  0.14156933406E+03  0.76315218682E+03  0.79501321173E+03  0.17200000000E+03 0. -1.
         -6    1    1    2    0  501 -0.43439867193E+01 -0.14156933406E+03  0.40040175663E+03  0.45822081280E+03  0.17200000000E+03 0.  1.
</event>
<event>
 4    1  0.3196149E-002  0.2120037E+03  0.7818608E-02  0.1139989E+00
          2   -1    0    0  502    0  0.00000000000E+00  0.00000000000E+00  0.30976940883E+04  0.30976940883E+04  0.00000000000E+00 0. -1.
         -2   -1    0    0    0  501 -0.00000000000E+00 -0.00000000000E+00 -0.15892191037E+02  0.15892191037E+02  0.00000000000E+00 0.  1.
          6    1    1    2  502    0  0.70912809223E+02 -0.10165114776E+03  0.10816792712E+04  0.11022593288E+04  0.17200000000E+03 0.  1.
         -6    1    1    2    0  501 -0.70912809223E+02  0.10165114776E+03  0.20001226261E+04  0.20113269505E+04  0.17200000000E+03 0. -1.
</event>
<event>
 4    1  0.3196149E-002  0.3704042E+03  0.7818608E-02  0.1054539E+00
         -1   -1    0    0    0  501 -0.00000000000E+00  0.00000000000E+00  0.15095433745E+03  0.15095433745E+03  0.00000000000E+00 0.  1.
          1   -1    0    0  502    0  0.00000000000E+00 -0.00000000000E+00 -0.15625094768E+04  0.15625094768E+04  0.00000000000E+00 0. -1.
          6    1    1    2  502    0  0.12402611877E+03 -0.30369849728E+03 -0.12598923014E+04  0.13132128033E+04  0.17200000000E+03 0. -1.
         -6    1    1    2    0  501 -0.12402611877E+03  0.30369849728E+03 -0.15166283788E+03  0.40025101097E+03  0.17200000000E+03 0.  1.
</event>
<event>
 4    1  0.3196149E-002  0.3200098E+03  0.7818608E-02  0.1075645E+00
          2   -1    0    0  502    0  0.00000000000E+00  0.00000000000E+00  0.22644187868E+04  0.22644187868E+04  0.00000000000E+00 0. -1.
         -2   -1    0    0    0  501 -0.00000000000E+00 -0.00000000000E+00 -0.56668405346E+02  0.56668405346E+02  0.00000000000E+00 0.  1.
          6    1    1    2  502    0 -0.22346091631E+03 -0.15128612064E+03  0.58233721699E+03  0.66447189986E+03  0.17200000000E+03 0. -1.
         -6    1    1    2    0  501  0.22346091631E+03  0.15128612064E+03  0.16254131645E+04  0.16566152923E+04  0.17200000000E+03 0.  1.
</event>
<event>
 4    1  0.3196149E-002  0.2384894E+03  0.7818608E-02  0.1120803E+00
         -2   -1    0    0    0  501 -0.00000000000E+00  0.00000000000E+00  0.54499011935E+02  0.54499011935E+02  0.00000000000E+00 0.  1.
          2   -1    0    0  502    0  0.00000000000E+00 -0.00000000000E+00 -0.10769546427E+04  0.10769546427E+04  0.00000000000E+00 0. -1.
          6    1    1    2  502    0 -0.14094327231E+03  0.86186830450E+02 -0.41172248524E+03  0.47580729356E+03  0.17200000000E+03 0.  1.
         -6    1    1    2    0  501  0.14094327231E+03 -0.86186830450E+02 -0.61073314556E+03  0.65564636111E+03  0.17200000000E+03 0.  1.
</event>
<event>
 4    1  0.3196149E-002  0.3759887E+03  0.7818608E-02  0.1052426E+00
         -1   -1    0    0    0  501 -0.00000000000E+00  0.00000000000E+00  0.25960676740E+03  0.25960676740E+03  0.00000000000E+00 0.  1.
          1   -1    0    0  502    0  0.00000000000E+00 -0.00000000000E+00 -0.28485636949E+04  0.28485636949E+04  0.00000000000E+00 0. -1.
          6    1    1    2  502    0 -0.28386334958E+03 -0.17664970855E+03 -0.26921492314E+04  0.27182779484E+04  0.17200000000E+03 0. -1.
         -6    1    1    2    0  501  0.28386334958E+03  0.17664970855E+03  0.10319230392E+03  0.38989251385E+03  0.17200000000E+03 0.  1.
</event>
<event>
 4    1  0.3196149E-002  0.1739120E+03  0.7818608E-02  0.1173829E+00
          1   -1    0    0  502    0  0.00000000000E+00  0.00000000000E+00  0.17711942449E+04  0.17711942449E+04  0.00000000000E+00 0. -1.
         -1   -1    0    0    0  501 -0.00000000000E+00 -0.00000000000E+00 -0.18599975453E+02  0.18599975453E+02  0.00000000000E+00 0.  1.
          6    1    1    2  502    0 -0.19025550863E+02 -0.17303431402E+02  0.11324317658E+04  0.11457081149E+04  0.17200000000E+03 0. -1.
         -6    1    1    2    0  501  0.19025550863E+02  0.17303431402E+02  0.62016250362E+03  0.64408610544E+03  0.17200000000E+03 0.  1.
</event>
<event>
 4    1  0.3196149E-002  0.2497724E+03  0.7818608E-02  0.1113449E+00
         -2   -1    0    0    0  501 -0.00000000000E+00  0.00000000000E+00  0.29734935073E+03  0.29734935073E+03  0.00000000000E+00 0.  1.
          2   -1    0    0  502    0  0.00000000000E+00 -0.00000000000E+00 -0.22973627494E+03  0.22973627494E+03  0.00000000000E+00 0. -1.
          6    1    1    2  502    0  0.17705953741E+03 -0.38107052248E+02  0.11142640678E+03  0.27349967339E+03  0.17200000000E+03 0. -1.
         -6    1    1    2    0  501 -0.17705953741E+03  0.38107052248E+02 -0.43813330996E+02  0.25358595228E+03  0.17200000000E+03 0.  1.
</event>
<event>
 4    1  0.3196149E-002  0.4488847E+03  0.7818608E-02  0.1028055E+00
         -2   -1    0    0    0  501 -0.00000000000E+00  0.00000000000E+00  0.21736662986E+03  0.21736662986E+03  0.00000000000E+00 0.  1.
          2   -1    0    0  502    0  0.00000000000E+00 -0.00000000000E+00 -0.10285267923E+04  0.10285267923E+04  0.00000000000E+00 0. -1.
          6    1    1    2  502    0  0.62507280376E+02  0.40988573812E+03 -0.20985473185E+03  0.49551638408E+03  0.17200000000E+03 0. -1.
         -6    1    1    2    0  501 -0.62507280376E+02 -0.40988573812E+03 -0.60130543057E+03  0.75037703806E+03  0.17200000000E+03 0.  1.
</event>
<event>
 4    1  0.3196149E-002  0.4168905E+03  0.7818608E-02  0.1038083E+00
         -2   -1    0    0    0  501 -0.00000000000E+00  0.00000000000E+00  0.21961536126E+03  0.21961536126E+03  0.00000000000E+00 0.  1.
          2   -1    0    0  502    0  0.00000000000E+00 -0.00000000000E+00 -0.90795585041E+03  0.90795585041E+03  0.00000000000E+00 0. -1.
          6    1    1    2  502    0 -0.37692144702E+03  0.46302784848E+02 -0.54619214967E+03  0.68711250132E+03  0.17200000000E+03 0. -1.
         -6    1    1    2    0  501  0.37692144702E+03 -0.46302784848E+02 -0.14214833948E+03  0.44045871035E+03  0.17200000000E+03 0.  1.
</event>
<event>
 4    1  0.3196149E-002  0.7674055E+03  0.7818608E-02  0.9608433E-01
          1   -1    0    0  502    0  0.00000000000E+00  0.00000000000E+00  0.35359483327E+03  0.35359483327E+03  0.00000000000E+00 0. -1.
         -1   -1    0    0    0  501 -0.00000000000E+00 -0.00000000000E+00 -0.19413165647E+04  0.19413165647E+04  0.00000000000E+00 0.  1.
          6    1    1    2  502    0  0.39937057543E+03  0.63232143085E+03 -0.12263747235E+04  0.14466880143E+04  0.17200000000E+03 0.  1.
         -6    1    1    2    0  501 -0.39937057543E+03 -0.63232143085E+03 -0.36134700799E+03  0.84822338367E+03  0.17200000000E+03 0. -1.
</event>
<event>
 4    1  0.3196149E-002  0.2107353E+03  0.7818608E-02  0.1140985E+00
         -2   -1    0    0    0  501 -0.00000000000E+00  0.00000000000E+00  0.17440030209E+03  0.17440030209E+03  0.00000000000E+00 0.  1.
          2   -1    0    0  502    0  0.00000000000E+00 -0.00000000000E+00 -0.26424948372E+03  0.26424948372E+03  0.00000000000E+00 0. -1.
          6    1    1    2  502    0 -0.70376207256E+02 -0.99360737440E+02 -0.31009995795E+01  0.21075811465E+03  0.17200000000E+03 0. -1.
         -6    1    1    2    0  501  0.70376207256E+02  0.99360737440E+02 -0.86748182051E+02  0.22789167115E+03  0.17200000000E+03 0. -1.
</event>
<event>
 4    1  0.3196149E-002  0.2635217E+03  0.7818608E-02  0.1105046E+00
         -2   -1    0    0    0  501 -0.00000000000E+00  0.00000000000E+00  0.37490627476E+02  0.37490627476E+02  0.00000000000E+00 0.  1.
          2   -1    0    0  502    0  0.00000000000E+00 -0.00000000000E+00 -0.18535505240E+04  0.18535505240E+04  0.00000000000E+00 0. -1.
          6    1    1    2  502    0  0.16957245216E+03 -0.10537974150E+03 -0.93263701861E+03  0.96915195658E+03  0.17200000000E+03 0. -1.
         -6    1    1    2    0  501 -0.16957245216E+03  0.10537974150E+03 -0.88342287789E+03  0.92188919488E+03  0.17200000000E+03 0.  1.
</event>
<event>
 4    1  0.3196149E-002  0.1845564E+03  0.7818608E-02  0.1163465E+00
          2   -1    0    0  502    0  0.00000000000E+00  0.00000000000E+00  0.18892823407E+03  0.18892823407E+03  0.00000000000E+00 0. -1.
         -2   -1    0    0    0  501 -0.00000000000E+00 -0.00000000000E+00 -0.18056738689E+03  0.18056738689E+03  0.00000000000E+00 0.  1.
          6    1    1    2  502    0  0.35868501683E+02  0.56484489955E+02  0.11478216895E+02  0.18491294298E+03  0.17200000000E+03 0. -1.
         -6    1    1    2    0  501 -0.35868501683E+02 -0.56484489955E+02 -0.31173697196E+01  0.18458267799E+03  0.17200000000E+03 0.  1.
</event>
<event>
 4    1  0.3196149E-002  0.1819709E+03  0.7818608E-02  0.1165909E+00
          1   -1    0    0  502    0  0.00000000000E+00  0.00000000000E+00  0.13464524027E+03  0.13464524027E+03  0.00000000000E+00 0. -1.
         -1   -1    0    0    0  501 -0.00000000000E+00 -0.00000000000E+00 -0.29034319275E+03  0.29034319275E+03  0.00000000000E+00 0.  1.
          6    1    1    2  502    0 -0.39340333604E+02  0.44516840443E+02  0.52591330842E+01  0.18204688795E+03  0.17200000000E+03 0. -1.
         -6    1    1    2    0  501  0.39340333604E+02 -0.44516840443E+02 -0.16095708556E+03  0.24294154508E+03  0.17200000000E+03 0. -1.
</event>
<event>
 4    1  0.3196149E-002  0.2229982E+03  0.7818608E-02  0.1131667E+00
         -2   -1    0    0    0  501 -0.00000000000E+00  0.00000000000E+00  0.86211308138E+02  0.86211308138E+02  0.00000000000E+00 0.  1.
          2   -1    0    0  502    0  0.00000000000E+00 -0.00000000000E+00 -0.60296908234E+03  0.60296908234E+03  0.00000000000E+00 0. -1.
          6    1    1    2  502    0 -0.13933703237E+03  0.27007608300E+02 -0.33014206421E+03  0.39839929977E+03  0.17200000000E+03 0. -1.
         -6    1    1    2    0  501  0.13933703237E+03 -0.27007608300E+02 -0.18661570999E+03  0.29078109070E+03  0.17200000000E+03 0.  1.
</event>
<event>
 4    1  0.3196149E-002  0.1788052E+03  0.7818608E-02  0.1168964E+00
         -2   -1    0    0    0  501 -0.00000000000E+00  0.00000000000E+00  0.26301754794E+02  0.26301754794E+02  0.00000000000E+00 0.  1.
          2   -1    0    0  502    0  0.00000000000E+00 -0.00000000000E+00 -0.34294397619E+04  0.34294397619E+04  0.00000000000E+00 0. -1.
          6    1    1    2  502    0  0.28654153967E+02  0.39575854791E+02 -0.30898483906E+04  0.30950176713E+04  0.17200000000E+03 0. -1.
         -6    1    1    2    0  501 -0.28654153967E+02 -0.39575854791E+02 -0.31328961653E+03  0.36072384541E+03  0.17200000000E+03 0.  1.
</event>
<event>
 4    1  0.3196149E-002  0.2192763E+03  0.7818608E-02  0.1134424E+00
         -1   -1    0    0    0  501 -0.00000000000E+00  0.00000000000E+00  0.29293779456E+02  0.29293779456E+02  0.00000000000E+00 0.  1.
          1   -1    0    0  502    0  0.00000000000E+00 -0.00000000000E+00 -0.23484690334E+04  0.23484690334E+04  0.00000000000E+00 0. -1.
          6    1    1    2  502    0 -0.13198256865E+03  0.32843418817E+02 -0.18119435103E+04  0.18251633825E+04  0.17200000000E+03 0. -1.
         -6    1    1    2    0  501  0.13198256865E+03 -0.32843418817E+02 -0.50723174371E+03  0.55259943034E+03  0.17200000000E+03 0.  1.
</event>
<event>
 4    1  0.3196149E-002  0.1733294E+03  0.7818608E-02  0.1174420E+00
         -2   -1    0    0    0  501 -0.00000000000E+00  0.00000000000E+00  0.34551315894E+02  0.34551315894E+02  0.00000000000E+00 0.  1.
          2   -1    0    0  502    0  0.00000000000E+00 -0.00000000000E+00 -0.91068743641E+03  0.91068743641E+03  0.00000000000E+00 0. -1.
          6    1    1    2  502    0  0.15365032999E+02  0.14932822071E+02 -0.53855317756E+03  0.56575842766E+03  0.17200000000E+03 0. -1.
         -6    1    1    2    0  501 -0.15365032999E+02 -0.14932822071E+02 -0.33758294296E+03  0.37948032464E+03  0.17200000000E+03 0.  1.
</event>
<event>
 4    1  0.3196149E-002  0.3126429E+03  0.7818608E-02  0.1079086E+00
         -1   -1    0    0    0  501 -0.00000000000E+00  0.00000000000E+00  0.43691451753E+03  0.43691451753E+03  0.00000000000E+00 0.  1.
          1   -1    0    0  502    0  0.00000000000E+00 -0.00000000000E+00 -0.27578420114E+03  0.27578420114E+03  0.00000000000E+00 0. -1.
          6    1    1    2  502    0 -0.91350024140E+02 -0.24457467740E+03 -0.74270020782E+02  0.32134348557E+03  0.17200000000E+03 0. -1.
         -6    1    1    2    0  501  0.91350024140E+02  0.24457467740E+03  0.23540033717E+03  0.39135523310E+03  0.17200000000E+03 0.  1.
</event>
<event>
 4    1  0.3196149E-002  0.1892887E+03  0.7818608E-02  0.1159104E+00
         -1   -1    0    0    0  501 -0.00000000000E+00  0.00000000000E+00  0.58932706804E+03  0.58932706804E+03  0.00000000000E+00 0.  1.
          1   -1    0    0  502    0  0.00000000000E+00 -0.00000000000E+00 -0.10979126533E+03  0.10979126533E+03  0.00000000000E+00 0. -1.
          6    1    1    2  502    0  0.73986668572E+00  0.79029520265E+02  0.62594002102E+01  0.18939216607E+03  0.17200000000E+03 0. -1.
         -6    1    1    2    0  501 -0.73986668572E+00 -0.79029520265E+02  0.47327640250E+03  0.50972616731E+03  0.17200000000E+03 0.  1.
</event>
<event>
 4    1  0.3196149E-002  0.2541967E+03  0.7818608E-02  0.1110681E+00
          1   -1    0    0  502    0  0.00000000000E+00  0.00000000000E+00  0.70304710222E+03  0.70304710222E+03  0.00000000000E+00 0. -1.
         -1   -1    0    0    0  501 -0.00000000000E+00 -0.00000000000E+00 -0.95154374427E+02  0.95154374427E+02  0.00000000000E+00 0.  1.
          6    1    1    2  502    0 -0.11156189361E+03 -0.15028609150E+03  0.37765828641E+03  0.45523812088E+03  0.17200000000E+03 0. -1.
         -6    1    1    2    0  501  0.11156189361E+03  0.15028609150E+03  0.23023444138E+03  0.34296335577E+03  0.17200000000E+03 0.  1.
</event>
<event>
 4    1  0.3196149E-002  0.1732199E+03  0.7818608E-02  0.1174531E+00
          2   -1    0    0  502    0  0.00000000000E+00  0.00000000000E+00  0.42035016484E+02  0.42035016484E+02  0.00000000000E+00 0. -1.
         -2   -1    0    0    0  501 -0.00000000000E+00 -0.00000000000E+00 -0.79270998598E+03  0.79270998598E+03  0.00000000000E+00 0.  1.
          6    1    1    2  502    0  0.15770927599E+02 -0.13130122064E+02 -0.50701090452E+03  0.53578463917E+03  0.17200000000E+03 0.  1.
         -6    1    1    2    0  501 -0.15770927599E+02  0.13130122064E+02 -0.24366406497E+03  0.29896036329E+03  0.17200000000E+03 0. -1.
</event>
<event>
 4    1  0.3196149E-002  0.1763617E+03  0.7818608E-02  0.1171371E+00
          2   -1    0    0  502    0  0.00000000000E+00  0.00000000000E+00  0.40004832311E+03  0.40004832311E+03  0.00000000000E+00 0. -1.
         -2   -1    0    0    0  501 -0.00000000000E+00 -0.00000000000E+00 -0.81008310989E+02  0.81008310989E+02  0.00000000000E+00 0.  1.
          6    1    1    2  502    0 -0.22573935355E+02  0.31778276702E+02  0.20776477999E+03  0.27252457730E+03  0.17200000000E+03 0. -1.
         -6    1    1    2    0  501  0.22573935355E+02 -0.31778276702E+02  0.11127523213E+03  0.20853205680E+03  0.17200000000E+03 0.  1.
</event>
<event>
 4    1  0.3196149E-002  0.1946231E+03  0.7818608E-02  0.1154356E+00
          2   -1    0    0  502    0  0.00000000000E+00  0.00000000000E+00  0.10558138338E+03  0.10558138338E+03  0.00000000000E+00 0. -1.
         -2   -1    0    0    0  501 -0.00000000000E+00 -0.00000000000E+00 -0.10421972260E+04  0.10421972260E+04  0.00000000000E+00 0.  1.
          6    1    1    2  502    0  0.90005086049E+02  0.13900449776E+02 -0.93304059735E+03  0.95312270686E+03  0.17200000000E+03 0.  1.
         -6    1    1    2    0  501 -0.90005086049E+02 -0.13900449776E+02 -0.35752452940E+01  0.19465590255E+03  0.17200000000E+03 0. -1.
</event>
<event>
 4    1  0.3196149E-002  0.5332072E+03  0.7818608E-02  0.1005457E+00
          2   -1    0    0  502    0  0.00000000000E+00  0.00000000000E+00  0.14643704604E+04  0.14643704604E+04  0.00000000000E+00 0. -1.
         -2   -1    0    0    0  501 -0.00000000000E+00 -0.00000000000E+00 -0.43614528177E+03  0.43614528177E+03  0.00000000000E+00 0.  1.
          6    1    1    2  502    0 -0.50336756976E+03  0.36701452315E+02  0.12219408136E+04  0.13332101330E+04  0.17200000000E+03 0. -1.
         -6    1    1    2    0  501  0.50336756976E+03 -0.36701452315E+02 -0.19371563500E+03  0.56730560911E+03  0.17200000000E+03 0.  1.
</event>
<event>
 4    1  0.3196149E-002  0.3639477E+03  0.7818608E-02  0.1057032E+00
          1   -1    0    0  502    0  0.00000000000E+00  0.00000000000E+00  0.13681918295E+04  0.13681918295E+04  0.00000000000E+00 0. -1.
         -1   -1    0    0    0  501 -0.00000000000E+00 -0.00000000000E+00 -0.13071725401E+03  0.13071725401E+03  0.00000000000E+00 0.  1.
          6    1    1    2  502    0  0.18670119361E+03  0.26079997726E+03  0.10004262847E+04  0.10645706716E+04  0.17200000000E+03 0. -1.
         -6    1    1    2    0  501 -0.18670119361E+03 -0.26079997726E+03  0.23704829077E+03  0.43433841183E+03  0.17200000000E+03 0. -1.
</event>
<event>
 4    1  0.3196149E-002  0.7674979E+03  0.7818608E-02  0.9608292E-01
         -1   -1    0    0    0  501 -0.00000000000E+00  0.00000000000E+00  0.70947869859E+03  0.70947869859E+03  0.00000000000E+00 0.  1.
          1   -1    0    0  502    0  0.00000000000E+00 -0.00000000000E+00 -0.12372868585E+04  0.12372868585E+04  0.00000000000E+00 0. -1.
          6    1    1    2  502    0 -0.78004992190E+02  0.74389803532E+03 -0.82219302539E+03  0.11247463877E+04  0.17200000000E+03 0. -1.
         -6    1    1    2    0  501  0.78004992190E+02 -0.74389803532E+03  0.29438486547E+03  0.82201916935E+03  0.17200000000E+03 0.  1.
</event>
<event>
 4    1  0.3196149E-002  0.3468587E+03  0.7818608E-02  0.1063912E+00
          1   -1    0    0  502    0  0.00000000000E+00  0.00000000000E+00  0.77114605413E+03  0.77114605413E+03  0.00000000000E+00 0. -1.
         -1   -1    0    0    0  501 -0.00000000000E+00 -0.00000000000E+00 -0.26207996060E+03  0.26207996060E+03  0.00000000000E+00 0.  1.
          6    1    1    2  502    0  0.26877917240E+03 -0.13595843567E+03  0.58318244047E+03  0.67853717556E+03  0.17200000000E+03 0. -1.
         -6    1    1    2    0  501 -0.26877917240E+03  0.13595843567E+03 -0.74116346935E+02  0.35468883917E+03  0.17200000000E+03 0.  1.
</event>
<event>
 4    1  0.3196149E-002  0.1873815E+03  0.7818608E-02  0.1160844E+00
         -2   -1    0    0    0  501 -0.00000000000E+00  0.00000000000E+00  0.35268523632E+03  0.35268523632E+03  0.00000000000E+00 0.  1.
          2   -1    0    0  502    0  0.00000000000E+00 -0.00000000000E+00 -0.30519330305E+03  0.30519330305E+03  0.00000000000E+00 0. -1.
          6    1    1    2  502    0  0.74346193631E+02  0.69121084260E+00 -0.24626379445E+03  0.30944739575E+03  0.17200000000E+03 0. -1.
         -6    1    1    2    0  501 -0.74346193631E+02 -0.69121084260E+00  0.29375572771E+03  0.34843114362E+03  0.17200000000E+03 0.  1.
</event>
<event>
 4    1  0.3196149E-002  0.5858271E+03  0.7818608E-02  0.9935254E-01
          1   -1    0    0  502    0  0.00000000000E+00  0.00000000000E+00  0.36971641471E+03  0.36971641471E+03  0.00000000000E+00 0. -1.
         -1   -1    0    0    0  501 -0.00000000000E+00 -0.00000000000E+00 -0.97490308094E+03  0.97490308094E+03  0.00000000000E+00 0.  1.
          6    1    1    2  502    0 -0.37581513610E+03  0.41517755482E+03 -0.44964722270E+03  0.73849579784E+03  0.17200000000E+03 0. -1.
         -6    1    1    2    0  501  0.37581513610E+03 -0.41517755482E+03 -0.15553944352E+03  0.60612369780E+03  0.17200000000E+03 0.  1.
</event>
<event>
 4    1  0.3196149E-002  0.2942172E+03  0.7818608E-02  0.1088168E+00
          1   -1    0    0  502    0  0.00000000000E+00  0.00000000000E+00  0.71400594241E+03  0.71400594241E+03  0.00000000000E+00 0. -1.
         -1   -1    0    0    0  501 -0.00000000000E+00 -0.00000000000E+00 -0.17064886106E+03  0.17064886106E+03  0.00000000000E+00 0.  1.
          6    1    1    2  502    0  0.17903211156E+03 -0.15788362495E+03  0.33660980532E+02  0.29613645100E+03  0.17200000000E+03 0. -1.
         -6    1    1    2    0  501 -0.17903211156E+03  0.15788362495E+03  0.50969610082E+03  0.58851835247E+03  0.17200000000E+03 0. -1.
</event>
<event>
 4    1  0.3196149E-002  0.2059337E+03  0.7818608E-02  0.1144827E+00
         -2   -1    0    0    0  501 -0.00000000000E+00  0.00000000000E+00  0.40225104945E+02  0.40225104945E+02  0.00000000000E+00 0.  1.
          2   -1    0    0  502    0  0.00000000000E+00 -0.00000000000E+00 -0.11002124406E+04  0.11002124406E+04  0.00000000000E+00 0. -1.
          6    1    1    2  502    0  0.11309583331E+03 -0.58314148014E+01 -0.64649890613E+03  0.67850534893E+03  0.17200000000E+03 0. -1.
         -6    1    1    2    0  501 -0.11309583331E+03  0.58314148014E+01 -0.41348842954E+03  0.46193219662E+03  0.17200000000E+03 0.  1.
</event>
<event>
 4    1  0.3196149E-002  0.2148170E+03  0.7818608E-02  0.1137807E+00
          3   -1    0    0  502    0  0.00000000000E+00  0.00000000000E+00  0.65226980542E+03  0.65226980542E+03  0.00000000000E+00 0. -1.
         -3   -1    0    0    0  501 -0.00000000000E+00 -0.00000000000E+00 -0.15004760602E+03  0.15004760602E+03  0.00000000000E+00 0.  1.
          6    1    1    2  502    0 -0.12514034429E+03 -0.30037150825E+02  0.54274572223E+03  0.58371161989E+03  0.17200000000E+03 0. -1.
         -6    1    1    2    0  501  0.12514034429E+03  0.30037150825E+02 -0.40523522824E+02  0.21860579155E+03  0.17200000000E+03 0.  1.
</event>
<event>
 4    1  0.3196149E-002  0.2502413E+03  0.7818608E-02  0.1113152E+00
          2   -1    0    0  502    0  0.00000000000E+00  0.00000000000E+00  0.65951278338E+03  0.65951278338E+03  0.00000000000E+00 0. -1.
         -2   -1    0    0    0  501 -0.00000000000E+00 -0.00000000000E+00 -0.10209677084E+03  0.10209677084E+03  0.00000000000E+00 0.  1.
          6    1    1    2  502    0  0.18138154108E+03 -0.11723678719E+02  0.37945978620E+03  0.45454420844E+03  0.17200000000E+03 0. -1.
         -6    1    1    2    0  501 -0.18138154108E+03  0.11723678719E+02  0.17795622634E+03  0.30706534578E+03  0.17200000000E+03 0.  1.
</event>
<event>
 4    1  0.3196149E-002  0.2069677E+03  0.7818608E-02  0.1143990E+00
         -1   -1    0    0    0  501 -0.00000000000E+00  0.00000000000E+00  0.21728983981E+02  0.21728983981E+02  0.00000000000E+00 0.  1.
          1   -1    0    0  502    0  0.00000000000E+00 -0.00000000000E+00 -0.19728260041E+04  0.19728260041E+04  0.00000000000E+00 0. -1.
          6    1    1    2  502    0 -0.11491899015E+03 -0.67272897657E+01 -0.94835472780E+03  0.97067621814E+03  0.17200000000E+03 0.  1.
         -6    1    1    2    0  501  0.11491899015E+03  0.67272897657E+01 -0.10027422923E+04  0.10238787699E+04  0.17200000000E+03 0. -1.
</event>
<event>
 4    1  0.3196149E-002  0.2826165E+03  0.7818608E-02  0.1094268E+00
         -2   -1    0    0    0  501 -0.00000000000E+00  0.00000000000E+00  0.58201723725E+02  0.58201723725E+02  0.00000000000E+00 0.  1.
          2   -1    0    0  502    0  0.00000000000E+00 -0.00000000000E+00 -0.17699009706E+04  0.17699009706E+04  0.00000000000E+00 0. -1.
          6    1    1    2  502    0 -0.17058564346E+03 -0.14556308203E+03 -0.12890636341E+04  0.13196806907E+04  0.17200000000E+03 0. -1.
         -6    1    1    2    0  501  0.17058564346E+03  0.14556308203E+03 -0.42263561282E+03  0.50842200369E+03  0.17200000000E+03 0.  1.
</event>
<event>
 4    1  0.3196149E-002  0.2359930E+03  0.7818608E-02  0.1122491E+00
          2   -1    0    0  502    0  0.00000000000E+00  0.00000000000E+00  0.17993574440E+04  0.17993574440E+04  0.00000000000E+00 0. -1.
         -2   -1    0    0    0  501 -0.00000000000E+00 -0.00000000000E+00 -0.16296803029E+03  0.16296803029E+03  0.00000000000E+00 0.  1.
          6    1    1    2  502    0  0.40865492675E+02  0.15632879352E+03  0.17012829755E+04  0.17175728348E+04  0.17200000000E+03 0. -1.
         -6    1    1    2    0  501 -0.40865492675E+02 -0.15632879352E+03 -0.64893561769E+02  0.24475263948E+03  0.17200000000E+03 0.  1.
</event>
<event>
 4    1  0.3196149E-002  0.2004084E+03  0.7818608E-02  0.1149395E+00
          1   -1    0    0  502    0  0.00000000000E+00  0.00000000000E+00  0.32955019556E+03  0.32955019556E+03  0.00000000000E+00 0. -1.
         -1   -1    0    0    0  501 -0.00000000000E+00 -0.00000000000E+00 -0.12195008134E+03  0.12195008134E+03  0.00000000000E+00 0.  1.
          6    1    1    2  502    0  0.83541526016E+02  0.60002942919E+02  0.10944555230E+03  0.22834594073E+03  0.17200000000E+03 0. -1.
         -6    1    1    2    0  501 -0.83541526016E+02 -0.60002942919E+02  0.98154561919E+02  0.22315433617E+03  0.17200000000E+03 0.  1.
</event>
<event>
 4    1  0.3196149E-002  0.2089232E+03  0.7818608E-02  0.1142422E+00
         -2   -1    0    0    0  501 -0.00000000000E+00  0.00000000000E+00  0.50578049747E+02  0.50578049747E+02  0.00000000000E+00 0.  1.
          2   -1    0    0  502    0  0.00000000000E+00 -0.00000000000E+00 -0.18188465740E+04  0.18188465740E+04  0.00000000000E+00 0. -1.
          6    1    1    2  502    0  0.66448829721E+02 -0.98231734401E+02 -0.15617347935E+04  0.15756473228E+04  0.17200000000E+03 0. -1.
         -6    1    1    2    0  501 -0.66448829721E+02  0.98231734401E+02 -0.20653373076E+03  0.29377730095E+03  0.17200000000E+03 0.  1.
</event>
<event>
 4    1  0.3196149E-002  0.3942953E+03  0.7818608E-02  0.1045773E+00
          2   -1    0    0  502    0  0.00000000000E+00  0.00000000000E+00  0.23237059920E+04  0.23237059920E+04  0.00000000000E+00 0. -1.
         -2   -1    0    0    0  501 -0.00000000000E+00 -0.00000000000E+00 -0.20794740146E+03  0.20794740146E+03  0.00000000000E+00 0.  1.
          6    1    1    2  502    0 -0.32558944445E+03  0.14098342400E+03  0.21003683700E+04  0.21370578143E+04  0.17200000000E+03 0. -1.
         -6    1    1    2    0  501  0.32558944445E+03 -0.14098342400E+03  0.15390220556E+02  0.39459557913E+03  0.17200000000E+03 0.  1.
</event>
<event>
 4    1  0.3196149E-002  0.2668120E+03  0.7818608E-02  0.1103118E+00
          1   -1    0    0  502    0  0.00000000000E+00  0.00000000000E+00  0.31316863308E+03  0.31316863308E+03  0.00000000000E+00 0. -1.
         -1   -1    0    0    0  501 -0.00000000000E+00 -0.00000000000E+00 -0.10983915371E+04  0.10983915371E+04  0.00000000000E+00 0.  1.
          6    1    1    2  502    0 -0.98474232796E+02 -0.17862666945E+03  0.23590751005E+03  0.35614746224E+03  0.17200000000E+03 0. -1.
         -6    1    1    2    0  501  0.98474232796E+02  0.17862666945E+03 -0.10211304140E+04  0.10554127079E+04  0.17200000000E+03 0.  1.
</event>
<event>
 4    1  0.3196149E-002  0.1828890E+03  0.7818608E-02  0.1165036E+00
         -2   -1    0    0    0  501 -0.00000000000E+00  0.00000000000E+00  0.27847132351E+02  0.27847132351E+02  0.00000000000E+00 0.  1.
          2   -1    0    0  502    0  0.00000000000E+00 -0.00000000000E+00 -0.13822029494E+04  0.13822029494E+04  0.00000000000E+00 0. -1.
          6    1    1    2  502    0  0.53435993034E+02  0.31764334251E+02 -0.93234828514E+03  0.95011667867E+03  0.17200000000E+03 0. -1.
         -6    1    1    2    0  501 -0.53435993034E+02 -0.31764334251E+02 -0.42200753190E+03  0.45993340307E+03  0.17200000000E+03 0.  1.
</event>
<event>
 4    1  0.3196149E-002  0.2213594E+03  0.7818608E-02  0.1132874E+00
          2   -1    0    0  502    0  0.00000000000E+00  0.00000000000E+00  0.13522085116E+04  0.13522085116E+04  0.00000000000E+00 0. -1.
         -2   -1    0    0    0  501 -0.00000000000E+00 -0.00000000000E+00 -0.36282328102E+02  0.36282328102E+02  0.00000000000E+00 0.  1.
          6    1    1    2  502    0 -0.13208677740E+03  0.44374421057E+02  0.63342976350E+03  0.67099424088E+03  0.17200000000E+03 0. -1.
         -6    1    1    2    0  501  0.13208677740E+03 -0.44374421057E+02  0.68249641999E+03  0.71749659882E+03  0.17200000000E+03 0.  1.
</event>
<event>
 4    1  0.3196149E-002  0.2394358E+03  0.7818608E-02  0.1120169E+00
          1   -1    0    0  502    0  0.00000000000E+00  0.00000000000E+00  0.76713021473E+02  0.76713021473E+02  0.00000000000E+00 0. -1.
         -1   -1    0    0    0  501 -0.00000000000E+00 -0.00000000000E+00 -0.11969951035E+04  0.11969951035E+04  0.00000000000E+00 0.  1.
          6    1    1    2  502    0 -0.16565925900E+03 -0.17392746228E+02 -0.16980277541E+03  0.29353446178E+03  0.17200000000E+03 0. -1.
         -6    1    1    2    0  501  0.16565925900E+03  0.17392746228E+02 -0.95047930659E+03  0.98017366317E+03  0.17200000000E+03 0.  1.
</event>
<event>
 4    1  0.3196149E-002  0.2303066E+03  0.7818608E-02  0.1126424E+00
         -2   -1    0    0    0  501 -0.00000000000E+00  0.00000000000E+00  0.41344549226E+02  0.41344549226E+02  0.00000000000E+00 0.  1.
          2   -1    0    0  502    0  0.00000000000E+00 -0.00000000000E+00 -0.25968516510E+04  0.25968516510E+04  0.00000000000E+00 0. -1.
          6    1    1    2  502    0 -0.30687328843E+02 -0.15005140282E+03 -0.33945215195E+03  0.41020592281E+03  0.17200000000E+03 0.  1.
         -6    1    1    2    0  501  0.30687328843E+02  0.15005140282E+03 -0.22160549498E+04  0.22279902774E+04  0.17200000000E+03 0. -1.
</event>
<event>
 4    1  0.3196149E-002  0.3224266E+03  0.7818608E-02  0.1074538E+00
         -2   -1    0    0    0  501 -0.00000000000E+00  0.00000000000E+00  0.88242116810E+03  0.88242116810E+03  0.00000000000E+00 0.  1.
          2   -1    0    0  502    0  0.00000000000E+00 -0.00000000000E+00 -0.12119376812E+03  0.12119376812E+03  0.00000000000E+00 0. -1.
          6    1    1    2  502    0 -0.11101002109E+03 -0.24910182264E+03  0.29677752667E+03  0.43821894432E+03  0.17200000000E+03 0. -1.
         -6    1    1    2    0  501  0.11101002109E+03  0.24910182264E+03  0.46444987331E+03  0.56539599189E+03  0.17200000000E+03 0.  1.
</event>
<event>
 4    1  0.3196149E-002  0.2207105E+03  0.7818608E-02  0.1133354E+00
         -2   -1    0    0    0  501 -0.00000000000E+00  0.00000000000E+00  0.48964037499E+02  0.48964037499E+02  0.00000000000E+00 0.  1.
          2   -1    0    0  502    0  0.00000000000E+00 -0.00000000000E+00 -0.16832537046E+04  0.16832537046E+04  0.00000000000E+00 0. -1.
          6    1    1    2  502    0 -0.86880620705E+02 -0.10761459735E+03 -0.13710189980E+04  0.13886706725E+04  0.17200000000E+03 0. -1.
         -6    1    1    2    0  501  0.86880620705E+02  0.10761459735E+03 -0.26327066913E+03  0.34354706961E+03  0.17200000000E+03 0.  1.
</event>
<event>
 4    1  0.3196149E-002  0.3115796E+03  0.7818608E-02  0.1079591E+00
          2   -1    0    0  502    0  0.00000000000E+00  0.00000000000E+00  0.14798260669E+04  0.14798260669E+04  0.00000000000E+00 0. -1.
         -2   -1    0    0    0  501 -0.00000000000E+00 -0.00000000000E+00 -0.10387900101E+03  0.10387900101E+03  0.00000000000E+00 0.  1.
          6    1    1    2  502    0  0.24226442262E+03  0.93839189046E+02  0.11686364138E+04  0.12094597602E+04  0.17200000000E+03 0. -1.
         -6    1    1    2    0  501 -0.24226442262E+03 -0.93839189046E+02  0.20731065207E+03  0.37424530769E+03  0.17200000000E+03 0.  1.
</event>
<event>
 4    1  0.3196149E-002  0.2024909E+03  0.7818608E-02  0.1147654E+00
          3   -1    0    0  502    0  0.00000000000E+00  0.00000000000E+00  0.55838717554E+03  0.55838717554E+03  0.00000000000E+00 0. -1.
         -3   -1    0    0    0  501 -0.00000000000E+00 -0.00000000000E+00 -0.26639554597E+03  0.26639554597E+03  0.00000000000E+00 0.  1.
          6    1    1    2  502    0 -0.83257167556E+02  0.66983502265E+02  0.49697843523E+03  0.53664710063E+03  0.17200000000E+03 0. -1.
         -6    1    1    2    0  501  0.83257167556E+02 -0.66983502265E+02 -0.20498680566E+03  0.28813562088E+03  0.17200000000E+03 0.  1.
</event>
<event>
 4    1  0.3196149E-002  0.5455483E+03  0.7818608E-02  0.1002530E+00
          2   -1    0    0  502    0  0.00000000000E+00  0.00000000000E+00  0.92849642550E+03  0.92849642550E+03  0.00000000000E+00 0. -1.
         -2   -1    0    0    0  501 -0.00000000000E+00 -0.00000000000E+00 -0.32781834890E+03  0.32781834890E+03  0.00000000000E+00 0.  1.
          6    1    1    2  502    0  0.51715446329E+03 -0.24294771143E+02  0.20675958145E+03  0.58341451758E+03  0.17200000000E+03 0. -1.
         -6    1    1    2    0  501 -0.51715446329E+03  0.24294771143E+02  0.39391849515E+03  0.67290025682E+03  0.17200000000E+03 0.  1.
</event>
<event>
 4    1  0.3196149E-002  0.1792095E+03  0.7818608E-02  0.1168570E+00
          1   -1    0    0  502    0  0.00000000000E+00  0.00000000000E+00  0.23247193180E+03  0.23247193180E+03  0.00000000000E+00 0. -1.
         -1   -1    0    0    0  501 -0.00000000000E+00 -0.00000000000E+00 -0.80330904006E+03  0.80330904006E+03  0.00000000000E+00 0.  1.
          6    1    1    2  502    0 -0.49156219520E+02 -0.10757398626E+02  0.18584002863E+03  0.25817159368E+03  0.17200000000E+03 0. -1.
         -6    1    1    2    0  501  0.49156219520E+02  0.10757398626E+02 -0.75667713689E+03  0.77760937818E+03  0.17200000000E+03 0.  1.
</event>
<event>
 4    1  0.3196149E-002  0.6247982E+03  0.7818608E-02  0.9855253E-01
          1   -1    0    0  502    0  0.00000000000E+00  0.00000000000E+00  0.52085537391E+03  0.52085537391E+03  0.00000000000E+00 0. -1.
         -1   -1    0    0    0  501 -0.00000000000E+00 -0.00000000000E+00 -0.12137004088E+04  0.12137004088E+04  0.00000000000E+00 0.  1.
          6    1    1    2  502    0 -0.38922471484E+03 -0.45748544243E+03  0.18994532800E+03  0.65303295193E+03  0.17200000000E+03 0. -1.
         -6    1    1    2    0  501  0.38922471484E+03  0.45748544243E+03 -0.88279036293E+03  0.10815228308E+04  0.17200000000E+03 0.  1.
</event>
<event>
 4    1  0.3196149E-002  0.2954888E+03  0.7818608E-02  0.1087518E+00
         -1   -1    0    0    0  501 -0.00000000000E+00  0.00000000000E+00  0.83853024971E+02  0.83853024971E+02  0.00000000000E+00 0.  1.
          1   -1    0    0  502    0  0.00000000000E+00 -0.00000000000E+00 -0.14693277466E+04  0.14693277466E+04  0.00000000000E+00 0. -1.
          6    1    1    2  502    0  0.17546834062E+03  0.16413550461E+03 -0.11119014546E+04  0.11504948706E+04  0.17200000000E+03 0. -1.
         -6    1    1    2    0  501 -0.17546834062E+03 -0.16413550461E+03 -0.27357326699E+03  0.40268590097E+03  0.17200000000E+03 0.  1.
</event>
<event>
 4    1  0.3196149E-002  0.3223181E+03  0.7818608E-02  0.1074587E+00
          2   -1    0    0  502    0  0.00000000000E+00  0.00000000000E+00  0.30347707230E+03  0.30347707230E+03  0.00000000000E+00 0. -1.
         -2   -1    0    0    0  501 -0.00000000000E+00 -0.00000000000E+00 -0.34315296530E+03  0.34315296530E+03  0.00000000000E+00 0.  1.
          6    1    1    2  502    0 -0.25789879015E+03 -0.88279013625E+02 -0.35681940203E+02  0.32428717376E+03  0.17200000000E+03 0. -1.
         -6    1    1    2    0  501  0.25789879015E+03  0.88279013625E+02 -0.39939527984E+01  0.32234286384E+03  0.17200000000E+03 0. -1.
</event>
<event>
 4    1  0.3196149E-002  0.2001139E+03  0.7818608E-02  0.1149643E+00
          1   -1    0    0  502    0  0.00000000000E+00  0.00000000000E+00  0.82186231791E+03  0.82186231791E+03  0.00000000000E+00 0. -1.
         -1   -1    0    0    0  501 -0.00000000000E+00 -0.00000000000E+00 -0.73502337337E+02  0.73502337337E+02  0.00000000000E+00 0.  1.
          6    1    1    2  502    0  0.95080549155E+02  0.37699837733E+02  0.63410196088E+03  0.66492923337E+03  0.17200000000E+03 0. -1.
         -6    1    1    2    0  501 -0.95080549155E+02 -0.37699837733E+02  0.11425801969E+03  0.23043542188E+03  0.17200000000E+03 0.  1.
</event>
<event>
 4    1  0.3196149E-002  0.2079722E+03  0.7818608E-02  0.1143182E+00
          2   -1    0    0  502    0  0.00000000000E+00  0.00000000000E+00  0.17654961916E+04  0.17654961916E+04  0.00000000000E+00 0. -1.
         -2   -1    0    0    0  501 -0.00000000000E+00 -0.00000000000E+00 -0.24861771640E+02  0.24861771640E+02  0.00000000000E+00 0.  1.
          6    1    1    2  502    0  0.31211883491E+02 -0.11266871951E+03  0.76214405036E+03  0.79001011103E+03  0.17200000000E+03 0.  1.
         -6    1    1    2    0  501 -0.31211883491E+02  0.11266871951E+03  0.97849036956E+03  0.10003478522E+04  0.17200000000E+03 0.  1.
</event>
<event>
 4    1  0.3196149E-002  0.2560674E+03  0.7818608E-02  0.1109529E+00
          2   -1    0    0  502    0  0.00000000000E+00  0.00000000000E+00  0.14056894319E+04  0.14056894319E+04  0.00000000000E+00 0. -1.
         -2   -1    0    0    0  501 -0.00000000000E+00 -0.00000000000E+00 -0.10222475185E+03  0.10222475185E+03  0.00000000000E+00 0.  1.
          6    1    1    2  502    0  0.13190866726E+03 -0.13633272286E+03  0.12076634727E+04  0.12345126856E+04  0.17200000000E+03 0. -1.
         -6    1    1    2    0  501 -0.13190866726E+03  0.13633272286E+03  0.95801207381E+02  0.27340149809E+03  0.17200000000E+03 0.  1.
</event>
<event>
 4    1  0.3196149E-002  0.2520391E+03  0.7818608E-02  0.1112023E+00
         -1   -1    0    0    0  501 -0.00000000000E+00  0.00000000000E+00  0.56875063589E+03  0.56875063589E+03  0.00000000000E+00 0.  1.
          1   -1    0    0  502    0  0.00000000000E+00 -0.00000000000E+00 -0.11273424434E+03  0.11273424434E+03  0.00000000000E+00 0. -1.
          6    1    1    2  502    0  0.12917156821E+03 -0.13135608805E+03  0.26080374789E+03  0.36268762153E+03  0.17200000000E+03 0.  1.
         -6    1    1    2    0  501 -0.12917156821E+03  0.13135608805E+03  0.19521264366E+03  0.31879725869E+03  0.17200000000E+03 0.  1.
</event>
<event>
 4    1  0.3196149E-002  0.2173925E+03  0.7818608E-02  0.1135842E+00
         -4   -1    0    0    0  501 -0.00000000000E+00  0.00000000000E+00  0.14948911324E+03  0.14948911324E+03  0.00000000000E+00 0.  1.
          4   -1    0    0  502    0  0.00000000000E+00 -0.00000000000E+00 -0.33292803702E+03  0.33292803702E+03  0.00000000000E+00 0. -1.
          6    1    1    2  502    0  0.90638526201E+02  0.97263229241E+02 -0.37554506693E+02  0.22061237311E+03  0.17200000000E+03 0. -1.
         -6    1    1    2    0  501 -0.90638526201E+02 -0.97263229241E+02 -0.14588441709E+03  0.26180477716E+03  0.17200000000E+03 0.  1.
</event>
<event>
 4    1  0.3196149E-002  0.2855129E+03  0.7818608E-02  0.1092715E+00
          2   -1    0    0  502    0  0.00000000000E+00  0.00000000000E+00  0.15277874503E+04  0.15277874503E+04  0.00000000000E+00 0. -1.
         -2   -1    0    0    0  501 -0.00000000000E+00 -0.00000000000E+00 -0.66748681305E+02  0.66748681305E+02  0.00000000000E+00 0.  1.
          6    1    1    2  502    0  0.22309175186E+03  0.46515673418E+02  0.10876327195E+04  0.11244832459E+04  0.17200000000E+03 0. -1.
         -6    1    1    2    0  501 -0.22309175186E+03 -0.46515673418E+02  0.37340604948E+03  0.47005288576E+03  0.17200000000E+03 0.  1.
</event>
<event>
 4    1  0.3196149E-002  0.1975047E+03  0.7818608E-02  0.1151862E+00
         -2   -1    0    0    0  501 -0.00000000000E+00  0.00000000000E+00  0.32359208663E+02  0.32359208663E+02  0.00000000000E+00 0.  1.
          2   -1    0    0  502    0  0.00000000000E+00 -0.00000000000E+00 -0.23549853132E+04  0.23549853132E+04  0.00000000000E+00 0. -1.
          6    1    1    2  502    0 -0.92091388639E+02  0.30713017470E+02 -0.19952784698E+04  0.20050297467E+04  0.17200000000E+03 0. -1.
         -6    1    1    2    0  501  0.92091388639E+02 -0.30713017470E+02 -0.32734763475E+03  0.38231477513E+03  0.17200000000E+03 0.  1.
</event>
<event>
 4    1  0.3196149E-002  0.3050392E+03  0.7818608E-02  0.1082748E+00
         -2   -1    0    0    0  501 -0.00000000000E+00  0.00000000000E+00  0.13353838458E+03  0.13353838458E+03  0.00000000000E+00 0.  1.
          2   -1    0    0  502    0  0.00000000000E+00 -0.00000000000E+00 -0.69806052346E+03  0.69806052346E+03  0.00000000000E+00 0. -1.
          6    1    1    2  502    0  0.85180038569E+02  0.23708489311E+03 -0.26455738339E+03  0.40378149366E+03  0.17200000000E+03 0. -1.
         -6    1    1    2    0  501 -0.85180038569E+02 -0.23708489311E+03 -0.29996475549E+03  0.42781741438E+03  0.17200000000E+03 0.  1.
</event>
<event>
 4    1  0.3196149E-002  0.2195081E+03  0.7818608E-02  0.1134250E+00
          1   -1    0    0  502    0  0.00000000000E+00  0.00000000000E+00  0.75445395167E+02  0.75445395167E+02  0.00000000000E+00 0. -1.
         -1   -1    0    0    0  501 -0.00000000000E+00 -0.00000000000E+00 -0.67978066131E+03  0.67978066131E+03  0.00000000000E+00 0.  1.
          6    1    1    2  502    0 -0.45363842785E+02 -0.12861541171E+03 -0.20929166123E+03  0.30329326043E+03  0.17200000000E+03 0.  1.
         -6    1    1    2    0  501  0.45363842785E+02  0.12861541171E+03 -0.39504360491E+03  0.45193279605E+03  0.17200000000E+03 0.  1.
</event>
<event>
 4    1  0.3196149E-002  0.3035275E+03  0.7818608E-02  0.1083490E+00
         -2   -1    0    0    0  501 -0.00000000000E+00  0.00000000000E+00  0.22900777030E+03  0.22900777030E+03  0.00000000000E+00 0.  1.
          2   -1    0    0  502    0  0.00000000000E+00 -0.00000000000E+00 -0.43886630330E+03  0.43886630330E+03  0.00000000000E+00 0. -1.
          6    1    1    2  502    0  0.40553343351E+02  0.24678003981E+03 -0.85327343718E+01  0.30364744237E+03  0.17200000000E+03 0. -1.
         -6    1    1    2    0  501 -0.40553343351E+02 -0.24678003981E+03 -0.20132579863E+03  0.36422663123E+03  0.17200000000E+03 0.  1.
</event>
<event>
 4    1  0.3196149E-002  0.1776517E+03  0.7818608E-02  0.1170095E+00
          2   -1    0    0  502    0  0.00000000000E+00  0.00000000000E+00  0.77813430688E+03  0.77813430688E+03  0.00000000000E+00 0. -1.
         -2   -1    0    0    0  501 -0.00000000000E+00 -0.00000000000E+00 -0.41079774534E+02  0.41079774534E+02  0.00000000000E+00 0.  1.
          6    1    1    2  502    0  0.36460136140E+02  0.25431840014E+02  0.41465914210E+03  0.45111231877E+03  0.17200000000E+03 0. -1.
         -6    1    1    2    0  501 -0.36460136140E+02 -0.25431840014E+02  0.32239539025E+03  0.36810176265E+03  0.17200000000E+03 0. -1.
</event>
<event>
 4    1  0.3196149E-002  0.2502002E+03  0.7818608E-02  0.1113178E+00
         -2   -1    0    0    0  501 -0.00000000000E+00  0.00000000000E+00  0.20018438280E+03  0.20018438280E+03  0.00000000000E+00 0.  1.
          2   -1    0    0  502    0  0.00000000000E+00 -0.00000000000E+00 -0.35161549006E+03  0.35161549006E+03  0.00000000000E+00 0. -1.
          6    1    1    2  502    0 -0.10482215380E+03 -0.14841979738E+03 -0.16748754781E+03  0.30108503592E+03  0.17200000000E+03 0. -1.
         -6    1    1    2    0  501  0.10482215380E+03  0.14841979738E+03  0.16056440550E+02  0.25071483695E+03  0.17200000000E+03 0.  1.
</event>
<event>
 4    1  0.3196149E-002  0.2070774E+03  0.7818608E-02  0.1143902E+00
         -2   -1    0    0    0  501 -0.00000000000E+00  0.00000000000E+00  0.10559179836E+04  0.10559179836E+04  0.00000000000E+00 0.  1.
          2   -1    0    0  502    0  0.00000000000E+00 -0.00000000000E+00 -0.42525491078E+02  0.42525491078E+02  0.00000000000E+00 0. -1.
          6    1    1    2  502    0 -0.54813771243E+02 -0.10145186563E+03  0.62325409117E+03  0.65675466706E+03  0.17200000000E+03 0.  1.
         -6    1    1    2    0  501  0.54813771243E+02  0.10145186563E+03  0.39013840135E+03  0.44168880761E+03  0.17200000000E+03 0. -1.
</event>
<event>
 4    1  0.3196149E-002  0.2972245E+03  0.7818608E-02  0.1086636E+00
         -2   -1    0    0    0  501 -0.00000000000E+00  0.00000000000E+00  0.75126875828E+02  0.75126875828E+02  0.00000000000E+00 0.  1.
          2   -1    0    0  502    0  0.00000000000E+00 -0.00000000000E+00 -0.12617387992E+04  0.12617387992E+04  0.00000000000E+00 0. -1.
          6    1    1    2  502    0  0.23494902168E+03  0.59643500054E+02 -0.41896822355E+03  0.51368936356E+03  0.17200000000E+03 0.  1.
         -6    1    1    2    0  501 -0.23494902168E+03 -0.59643500054E+02 -0.76764369980E+03  0.82317631144E+03  0.17200000000E+03 0.  1.
</event>
<event>
 4    1  0.3196149E-002  0.1930935E+03  0.7818608E-02  0.1155700E+00
          1   -1    0    0  502    0  0.00000000000E+00  0.00000000000E+00  0.58958710932E+03  0.58958710932E+03  0.00000000000E+00 0. -1.
         -1   -1    0    0    0  501 -0.00000000000E+00 -0.00000000000E+00 -0.64573374436E+02  0.64573374436E+02  0.00000000000E+00 0.  1.
          6    1    1    2  502    0 -0.80251269265E+02 -0.35508366746E+02  0.21549493040E+03  0.28934957293E+03  0.17200000000E+03 0. -1.
         -6    1    1    2    0  501  0.80251269265E+02  0.35508366746E+02  0.30951880449E+03  0.36481091083E+03  0.17200000000E+03 0.  1.
</event>
<event>
 4    1  0.3196149E-002  0.1914393E+03  0.7818608E-02  0.1157170E+00
          1   -1    0    0  502    0  0.00000000000E+00  0.00000000000E+00  0.63217285068E+03  0.63217285068E+03  0.00000000000E+00 0. -1.
         -1   -1    0    0    0  501 -0.00000000000E+00 -0.00000000000E+00 -0.63041416032E+02  0.63041416032E+02  0.00000000000E+00 0.  1.
          6    1    1    2  502    0 -0.10060539713E+02 -0.83449428356E+02  0.38312724613E+03  0.42829371730E+03  0.17200000000E+03 0. -1.
         -6    1    1    2    0  501  0.10060539713E+02  0.83449428356E+02  0.18600418852E+03  0.26692054941E+03  0.17200000000E+03 0.  1.
</event>
<event>
 4    1  0.3196149E-002  0.3140770E+03  0.7818608E-02  0.1078408E+00
         -2   -1    0    0    0  501 -0.00000000000E+00  0.00000000000E+00  0.34966577361E+02  0.34966577361E+02  0.00000000000E+00 0.  1.
          2   -1    0    0  502    0  0.00000000000E+00 -0.00000000000E+00 -0.30980899393E+04  0.30980899393E+04  0.00000000000E+00 0. -1.
          6    1    1    2  502    0  0.24592500004E+03  0.92635033752E+02 -0.19999650368E+04  0.20244763530E+04  0.17200000000E+03 0. -1.
         -6    1    1    2    0  501 -0.24592500004E+03 -0.92635033752E+02 -0.10631583252E+04  0.11085801638E+04  0.17200000000E+03 0.  1.
</event>
<event>
 4    1  0.3196149E-002  0.1878740E+03  0.7818608E-02  0.1160393E+00
          1   -1    0    0  502    0  0.00000000000E+00  0.00000000000E+00  0.59726265613E+03  0.59726265613E+03  0.00000000000E+00 0. -1.
         -1   -1    0    0    0  501 -0.00000000000E+00 -0.00000000000E+00 -0.62324000045E+02  0.62324000045E+02  0.00000000000E+00 0.  1.
          6    1    1    2  502    0 -0.63214697630E+02 -0.41431021147E+02  0.19242954463E+03  0.26893448487E+03  0.17200000000E+03 0.  1.
         -6    1    1    2    0  501  0.63214697630E+02  0.41431021147E+02  0.34250911146E+03  0.39065217130E+03  0.17200000000E+03 0. -1.
</event>
<event>
 4    1  0.3196149E-002  0.2108071E+03  0.7818608E-02  0.1140928E+00
         -2   -1    0    0    0  501 -0.00000000000E+00  0.00000000000E+00  0.16527859019E+03  0.16527859019E+03  0.00000000000E+00 0.  1.
          2   -1    0    0  502    0  0.00000000000E+00 -0.00000000000E+00 -0.30619308768E+03  0.30619308768E+03  0.00000000000E+00 0. -1.
          6    1    1    2  502    0 -0.11414394992E+03  0.42741064201E+02 -0.15275253790E+03  0.26033243691E+03  0.17200000000E+03 0. -1.
         -6    1    1    2    0  501  0.11414394992E+03 -0.42741064201E+02  0.11838040410E+02  0.21113924096E+03  0.17200000000E+03 0.  1.
</event>
<event>
 4    1  0.3196149E-002  0.3310916E+03  0.7818608E-02  0.1070655E+00
          1   -1    0    0  502    0  0.00000000000E+00  0.00000000000E+00  0.60967914521E+03  0.60967914521E+03  0.00000000000E+00 0. -1.
         -1   -1    0    0    0  501 -0.00000000000E+00 -0.00000000000E+00 -0.35367047857E+03  0.35367047857E+03  0.00000000000E+00 0.  1.
          6    1    1    2  502    0  0.14809482630E+03  0.24105094376E+03  0.46573052473E+03  0.57142502284E+03  0.17200000000E+03 0. -1.
         -6    1    1    2    0  501 -0.14809482630E+03 -0.24105094376E+03 -0.20972185809E+03  0.39192460094E+03  0.17200000000E+03 0.  1.
</event>
<event>
 4    1  0.3196149E-002  0.2606129E+03  0.7818608E-02  0.1106776E+00
          2   -1    0    0  502    0  0.00000000000E+00  0.00000000000E+00  0.59214993722E+02  0.59214993722E+02  0.00000000000E+00 0. -1.
         -2   -1    0    0    0  501 -0.00000000000E+00 -0.00000000000E+00 -0.11470089133E+04  0.11470089133E+04  0.00000000000E+00 0.  1.
          6    1    1    2  502    0  0.12194380685E+03 -0.15318227919E+03 -0.54623751062E+03  0.60522270338E+03  0.17200000000E+03 0. -1.
         -6    1    1    2    0  501 -0.12194380685E+03  0.15318227919E+03 -0.54155640895E+03  0.60100120363E+03  0.17200000000E+03 0.  1.
</event>
<event>
 4    1  0.3196149E-002  0.2107334E+03  0.7818608E-02  0.1140987E+00
         -1   -1    0    0    0  501 -0.00000000000E+00  0.00000000000E+00  0.15844358761E+03  0.15844358761E+03  0.00000000000E+00 0.  1.
          1   -1    0    0  502    0  0.00000000000E+00 -0.00000000000E+00 -0.28318430593E+03  0.28318430593E+03  0.00000000000E+00 0. -1.
          6    1    1    2  502    0 -0.11793509399E+03 -0.30263566829E+02 -0.84732457533E+02  0.22713026930E+03  0.17200000000E+03 0. -1.
         -6    1    1    2    0  501  0.11793509399E+03  0.30263566829E+02 -0.40008260794E+02  0.21449762424E+03  0.17200000000E+03 0. -1.
</event>
<event>
 4    1  0.3196149E-002  0.1933269E+03  0.7818608E-02  0.1155494E+00
         -1   -1    0    0    0  501 -0.00000000000E+00  0.00000000000E+00  0.15334051490E+04  0.15334051490E+04  0.00000000000E+00 0.  1.
          1   -1    0    0  502    0  0.00000000000E+00 -0.00000000000E+00 -0.39477597385E+02  0.39477597385E+02  0.00000000000E+00 0. -1.
          6    1    1    2  502    0  0.36481873806E+02  0.80376365847E+02  0.26052236661E+03  0.32441823439E+03  0.17200000000E+03 0. -1.
         -6    1    1    2    0  501 -0.36481873806E+02 -0.80376365847E+02  0.12334051850E+04  0.12484645120E+04  0.17200000000E+03 0.  1.
</event>
<event>
 4    1  0.3196149E-002  0.4421085E+03  0.7818608E-02  0.1030102E+00
          1   -1    0    0  502    0  0.00000000000E+00  0.00000000000E+00  0.11575668851E+04  0.11575668851E+04  0.00000000000E+00 0. -1.
         -1   -1    0    0    0  501 -0.00000000000E+00 -0.00000000000E+00 -0.18478131651E+03  0.18478131651E+03  0.00000000000E+00 0.  1.
          6    1    1    2  502    0 -0.21329561907E+03 -0.34695956390E+03  0.68344238854E+03  0.81397386847E+03  0.17200000000E+03 0. -1.
         -6    1    1    2    0  501  0.21329561907E+03  0.34695956390E+03  0.28934318009E+03  0.52837433318E+03  0.17200000000E+03 0.  1.
</event>
<event>
 4    1  0.3196149E-002  0.6214230E+03  0.7818608E-02  0.9861931E-01
          2   -1    0    0  502    0  0.00000000000E+00  0.00000000000E+00  0.33335575077E+03  0.33335575077E+03  0.00000000000E+00 0. -1.
         -2   -1    0    0    0  501 -0.00000000000E+00 -0.00000000000E+00 -0.14132162834E+04  0.14132162834E+04  0.00000000000E+00 0.  1.
          6    1    1    2  502    0  0.39494137941E+03 -0.44788821621E+03 -0.91073669520E+03  0.11025460876E+04  0.17200000000E+03 0. -1.
         -6    1    1    2    0  501 -0.39494137941E+03  0.44788821621E+03 -0.16912383742E+03  0.64402594651E+03  0.17200000000E+03 0.  1.
</event>
<event>
 4    1  0.3196149E-002  0.1882557E+03  0.7818608E-02  0.1160044E+00
          3   -1    0    0  502    0  0.00000000000E+00  0.00000000000E+00  0.98389225642E+02  0.98389225642E+02  0.00000000000E+00 0. -1.
         -3   -1    0    0    0  501 -0.00000000000E+00 -0.00000000000E+00 -0.36020596854E+03  0.36020596854E+03  0.00000000000E+00 0.  1.
          6    1    1    2  502    0 -0.74425467091E+02  0.17806524862E+02 -0.13041536098E+03  0.22901613231E+03  0.17200000000E+03 0. -1.
         -6    1    1    2    0  501  0.74425467091E+02 -0.17806524862E+02 -0.13140138192E+03  0.22957906187E+03  0.17200000000E+03 0. -1.
</event>
<event>
 4    1  0.3196149E-002  0.1854729E+03  0.7818608E-02  0.1162609E+00
         -1   -1    0    0    0  501 -0.00000000000E+00  0.00000000000E+00  0.15133640165E+03  0.15133640165E+03  0.00000000000E+00 0.  1.
          1   -1    0    0  502    0  0.00000000000E+00 -0.00000000000E+00 -0.11863543168E+04  0.11863543168E+04  0.00000000000E+00 0. -1.
          6    1    1    2  502    0 -0.51339248546E+02 -0.46695642497E+02 -0.11188737003E+04  0.11341422128E+04  0.17200000000E+03 0. -1.
         -6    1    1    2    0  501  0.51339248546E+02  0.46695642497E+02  0.83855785159E+02  0.20354850570E+03  0.17200000000E+03 0.  1.
</event>
<event>
 4    1  0.3196149E-002  0.1972943E+03  0.7818608E-02  0.1152042E+00
         -1   -1    0    0    0  501 -0.00000000000E+00  0.00000000000E+00  0.15568392092E+03  0.15568392092E+03  0.00000000000E+00 0.  1.
          1   -1    0    0  502    0  0.00000000000E+00 -0.00000000000E+00 -0.33168096969E+03  0.33168096969E+03  0.00000000000E+00 0. -1.
          6    1    1    2  502    0  0.84111847116E+02 -0.47604978554E+02  0.32909500722E+02  0.20002017910E+03  0.17200000000E+03 0.  1.
         -6    1    1    2    0  501 -0.84111847116E+02  0.47604978554E+02 -0.20890654949E+03  0.28734471150E+03  0.17200000000E+03 0. -1.
</event>
<event>
 4    1  0.3196149E-002  0.2078528E+03  0.7818608E-02  0.1143278E+00
          2   -1    0    0  502    0  0.00000000000E+00  0.00000000000E+00  0.50125219901E+03  0.50125219901E+03  0.00000000000E+00 0. -1.
         -2   -1    0    0    0  501 -0.00000000000E+00 -0.00000000000E+00 -0.10353699392E+03  0.10353699392E+03  0.00000000000E+00 0.  1.
          6    1    1    2  502    0 -0.10567734161E+03  0.49508462883E+02  0.75080068802E+02  0.22099729672E+03  0.17200000000E+03 0.  1.
         -6    1    1    2    0  501  0.10567734161E+03 -0.49508462883E+02  0.32263513629E+03  0.38379189621E+03  0.17200000000E+03 0. -1.
</event>
<event>
 4    1  0.3196149E-002  0.2088890E+03  0.7818608E-02  0.1142449E+00
         -2   -1    0    0    0  501 -0.00000000000E+00  0.00000000000E+00  0.29196953221E+02  0.29196953221E+02  0.00000000000E+00 0.  1.
          2   -1    0    0  502    0  0.00000000000E+00 -0.00000000000E+00 -0.18534055682E+04  0.18534055682E+04  0.00000000000E+00 0. -1.
          6    1    1    2  502    0 -0.51887129545E+02  0.10657550632E+03 -0.49787735649E+03  0.53992265638E+03  0.17200000000E+03 0.  1.
         -6    1    1    2    0  501  0.51887129545E+02 -0.10657550632E+03 -0.13263312585E+04  0.13426798650E+04  0.17200000000E+03 0. -1.
</event>
<event>
 4    1  0.3196149E-002  0.1955958E+03  0.7818608E-02  0.1153509E+00
         -1   -1    0    0    0  501 -0.00000000000E+00  0.00000000000E+00  0.22823599075E+03  0.22823599075E+03  0.00000000000E+00 0.  1.
          1   -1    0    0  502    0  0.00000000000E+00 -0.00000000000E+00 -0.62459499285E+03  0.62459499285E+03  0.00000000000E+00 0. -1.
          6    1    1    2  502    0  0.86424729782E+02  0.34705388566E+02 -0.56291523671E+03  0.59592890653E+03  0.17200000000E+03 0. -1.
         -6    1    1    2    0  501 -0.86424729782E+02 -0.34705388566E+02  0.16655623461E+03  0.25690207707E+03  0.17200000000E+03 0.  1.
</event>
<event>
 4    1  0.3196149E-002  0.4460484E+03  0.7818608E-02  0.1028907E+00
          1   -1    0    0  502    0  0.00000000000E+00  0.00000000000E+00  0.21573468072E+04  0.21573468072E+04  0.00000000000E+00 0. -1.
         -1   -1    0    0    0  501 -0.00000000000E+00 -0.00000000000E+00 -0.38780497846E+03  0.38780497846E+03  0.00000000000E+00 0.  1.
          6    1    1    2  502    0 -0.61302456951E+02  0.40696090971E+03  0.19957739250E+04  0.20450116706E+04  0.17200000000E+03 0. -1.
         -6    1    1    2    0  501  0.61302456951E+02 -0.40696090971E+03 -0.22623209628E+03  0.50014011501E+03  0.17200000000E+03 0.  1.
</event>
<event>
 4    1  0.3196149E-002  0.3247231E+03  0.7818608E-02  0.1073496E+00
          2   -1    0    0  502    0  0.00000000000E+00  0.00000000000E+00  0.54968304061E+03  0.54968304061E+03  0.00000000000E+00 0. -1.
         -2   -1    0    0    0  501 -0.00000000000E+00 -0.00000000000E+00 -0.19634036019E+03  0.19634036019E+03  0.00000000000E+00 0.  1.
          6    1    1    2  502    0  0.16290426383E+03 -0.22208848421E+03  0.12012869227E+03  0.34623113191E+03  0.17200000000E+03 0. -1.
         -6    1    1    2    0  501 -0.16290426383E+03  0.22208848421E+03  0.23321398815E+03  0.39979226889E+03  0.17200000000E+03 0.  1.
</event>
<event>
 4    1  0.3196149E-002  0.3037067E+03  0.7818608E-02  0.1083402E+00
          2   -1    0    0  502    0  0.00000000000E+00  0.00000000000E+00  0.10668537622E+03  0.10668537622E+03  0.00000000000E+00 0. -1.
         -2   -1    0    0    0  501 -0.00000000000E+00 -0.00000000000E+00 -0.95674053801E+03  0.95674053801E+03  0.00000000000E+00 0.  1.
          6    1    1    2  502    0 -0.22568236977E+03 -0.10826467676E+03 -0.25999920472E+03  0.39979664670E+03  0.17200000000E+03 0. -1.
         -6    1    1    2    0  501  0.22568236977E+03  0.10826467676E+03 -0.59005595707E+03  0.66362926753E+03  0.17200000000E+03 0.  1.
</event>
<event>
 4    1  0.3196149E-002  0.1969003E+03  0.7818608E-02  0.1152381E+00
         -2   -1    0    0    0  501 -0.00000000000E+00  0.00000000000E+00  0.13572031596E+03  0.13572031596E+03  0.00000000000E+00 0.  1.
          2   -1    0    0  502    0  0.00000000000E+00 -0.00000000000E+00 -0.53672085116E+03  0.53672085116E+03  0.00000000000E+00 0. -1.
          6    1    1    2  502    0  0.49020527364E+02  0.82357249870E+02 -0.43045398446E+03  0.47335014677E+03  0.17200000000E+03 0. -1.
         -6    1    1    2    0  501 -0.49020527364E+02 -0.82357249870E+02  0.29453449264E+02  0.19909102035E+03  0.17200000000E+03 0.  1.
</event>
<event>
 4    1  0.3196149E-002  0.2401510E+03  0.7818608E-02  0.1119692E+00
          3   -1    0    0  502    0  0.00000000000E+00  0.00000000000E+00  0.95886923640E+03  0.95886923640E+03  0.00000000000E+00 0. -1.
         -3   -1    0    0    0  501 -0.00000000000E+00 -0.00000000000E+00 -0.82115325719E+02  0.82115325719E+02  0.00000000000E+00 0.  1.
          6    1    1    2  502    0 -0.98833555869E+02 -0.13535303537E+03  0.70759661172E+03  0.74723857025E+03  0.17200000000E+03 0. -1.
         -6    1    1    2    0  501  0.98833555869E+02  0.13535303537E+03  0.16915729896E+03  0.29374599187E+03  0.17200000000E+03 0.  1.
</event>
<event>
 4    1  0.3196149E-002  0.1874022E+03  0.7818608E-02  0.1160825E+00
          2   -1    0    0  502    0  0.00000000000E+00  0.00000000000E+00  0.20330367381E+04  0.20330367381E+04  0.00000000000E+00 0. -1.
         -2   -1    0    0    0  501 -0.00000000000E+00 -0.00000000000E+00 -0.62767318252E+02  0.62767318252E+02  0.00000000000E+00 0.  1.
          6    1    1    2  502    0  0.31682518040E+02 -0.67318743764E+02  0.18772593714E+04  0.18865901364E+04  0.17200000000E+03 0. -1.
         -6    1    1    2    0  501 -0.31682518040E+02  0.67318743764E+02  0.93010048523E+02  0.20921392004E+03  0.17200000000E+03 0.  1.
</event>
<event>
 4    1  0.3196149E-002  0.2080033E+03  0.7818608E-02  0.1143157E+00
          1   -1    0    0  502    0  0.00000000000E+00  0.00000000000E+00  0.43455263970E+03  0.43455263970E+03  0.00000000000E+00 0. -1.
         -1   -1    0    0    0  501 -0.00000000000E+00 -0.00000000000E+00 -0.18992155578E+03  0.18992155578E+03  0.00000000000E+00 0.  1.
          6    1    1    2  502    0 -0.41705804184E+02  0.10927943678E+03  0.33768394363E+03  0.39660536455E+03  0.17200000000E+03 0. -1.
         -6    1    1    2    0  501  0.41705804184E+02 -0.10927943678E+03 -0.93052859709E+02  0.22786883092E+03  0.17200000000E+03 0.  1.
</event>
<event>
 4    1  0.3196149E-002  0.3111978E+03  0.7818608E-02  0.1079773E+00
          2   -1    0    0  502    0  0.00000000000E+00  0.00000000000E+00  0.92935192781E+03  0.92935192781E+03  0.00000000000E+00 0. -1.
         -2   -1    0    0    0  501 -0.00000000000E+00 -0.00000000000E+00 -0.14053494371E+03  0.14053494371E+03  0.00000000000E+00 0.  1.
          6    1    1    2  502    0  0.25506762376E+03  0.46910211306E+02  0.66639164146E+03  0.73547391553E+03  0.17200000000E+03 0. -1.
         -6    1    1    2    0  501 -0.25506762376E+03 -0.46910211306E+02  0.12242534263E+03  0.33441295599E+03  0.17200000000E+03 0.  1.
</event>
<event>
 4    1  0.3196149E-002  0.6606439E+03  0.7818608E-02  0.9787009E-01
          2   -1    0    0  502    0  0.00000000000E+00  0.00000000000E+00  0.17032395544E+04  0.17032395544E+04  0.00000000000E+00 0. -1.
         -2   -1    0    0    0  501 -0.00000000000E+00 -0.00000000000E+00 -0.25648345099E+03  0.25648345099E+03  0.00000000000E+00 0.  1.
          6    1    1    2  502    0  0.56980390554E+03  0.28668774322E+03  0.69363884890E+03  0.95790667896E+03  0.17200000000E+03 0.  1.
         -6    1    1    2    0  501 -0.56980390554E+03 -0.28668774322E+03  0.75311725455E+03  0.10018163265E+04  0.17200000000E+03 0. -1.
</event>
<event>
 4    1  0.3196149E-002  0.1969360E+03  0.7818608E-02  0.1152350E+00
         -4   -1    0    0    0  501 -0.00000000000E+00  0.00000000000E+00  0.70915794680E+03  0.70915794680E+03  0.00000000000E+00 0.  1.
          4   -1    0    0  502    0  0.00000000000E+00 -0.00000000000E+00 -0.73564204695E+02  0.73564204695E+02  0.00000000000E+00 0. -1.
          6    1    1    2  502    0  0.29981615608E+02  0.91109177402E+02  0.11956211495E+03  0.23038853880E+03  0.17200000000E+03 0. -1.
         -6    1    1    2    0  501 -0.29981615608E+02 -0.91109177402E+02  0.51603162716E+03  0.55233361269E+03  0.17200000000E+03 0.  1.
</event>
<event>
 4    1  0.3196149E-002  0.3582744E+03  0.7818608E-02  0.1059269E+00
         -2   -1    0    0    0  501 -0.00000000000E+00  0.00000000000E+00  0.21478969171E+03  0.21478969171E+03  0.00000000000E+00 0.  1.
          2   -1    0    0  502    0  0.00000000000E+00 -0.00000000000E+00 -0.13518998000E+04  0.13518998000E+04  0.00000000000E+00 0. -1.
          6    1    1    2  502    0 -0.17283397028E+03  0.26249753097E+03 -0.11536814768E+04  0.12080320712E+04  0.17200000000E+03 0. -1.
         -6    1    1    2    0  501  0.17283397028E+03 -0.26249753097E+03  0.16571368524E+02  0.35865742054E+03  0.17200000000E+03 0.  1.
</event>
<event>
 4    1  0.3196149E-002  0.2140820E+03  0.7818608E-02  0.1138374E+00
         -2   -1    0    0    0  501 -0.00000000000E+00  0.00000000000E+00  0.31714251811E+03  0.31714251811E+03  0.00000000000E+00 0.  1.
          2   -1    0    0  502    0  0.00000000000E+00 -0.00000000000E+00 -0.73516476093E+03  0.73516476093E+03  0.00000000000E+00 0. -1.
          6    1    1    2  502    0  0.40805887200E+02  0.12075589928E+03 -0.68062449946E+03  0.71349899573E+03  0.17200000000E+03 0. -1.
         -6    1    1    2    0  501 -0.40805887200E+02 -0.12075589928E+03  0.26260225665E+03  0.33880828331E+03  0.17200000000E+03 0.  1.
</event>
<event>
 4    1  0.3196149E-002  0.1732977E+03  0.7818608E-02  0.1174452E+00
         -2   -1    0    0    0  501 -0.00000000000E+00  0.00000000000E+00  0.29064612941E+03  0.29064612941E+03  0.00000000000E+00 0.  1.
          2   -1    0    0  502    0  0.00000000000E+00 -0.00000000000E+00 -0.10403585515E+03  0.10403585515E+03  0.00000000000E+00 0. -1.
          6    1    1    2  502    0  0.12232000854E+02  0.17276782773E+02  0.10957408701E+03  0.20503314271E+03  0.17200000000E+03 0. -1.
         -6    1    1    2    0  501 -0.12232000854E+02 -0.17276782773E+02  0.77036187248E+02  0.18964884185E+03  0.17200000000E+03 0.  1.
</event>
<event>
 4    1  0.3196149E-002  0.1991655E+03  0.7818608E-02  0.1150445E+00
         -1   -1    0    0    0  501 -0.00000000000E+00  0.00000000000E+00  0.71946840218E+02  0.71946840218E+02  0.00000000000E+00 0.  1.
          1   -1    0    0  502    0  0.00000000000E+00 -0.00000000000E+00 -0.63908955058E+03  0.63908955058E+03  0.00000000000E+00 0. -1.
          6    1    1    2  502    0 -0.16334624979E+02 -0.99076082416E+02 -0.41530996707E+03  0.46059663354E+03  0.17200000000E+03 0. -1.
         -6    1    1    2    0  501  0.16334624979E+02  0.99076082416E+02 -0.15183274329E+03  0.25043975726E+03  0.17200000000E+03 0.  1.
</event>
<event>
 4    1  0.3196149E-002  0.2148146E+03  0.7818608E-02  0.1137809E+00
          2   -1    0    0  502    0  0.00000000000E+00  0.00000000000E+00  0.65760776487E+03  0.65760776487E+03  0.00000000000E+00 0. -1.
         -2   -1    0    0    0  501 -0.00000000000E+00 -0.00000000000E+00 -0.79896317636E+02  0.79896317636E+02  0.00000000000E+00 0.  1.
          6    1    1    2  502    0  0.10995865345E+03 -0.66861198795E+02  0.41750629311E+03  0.46952830603E+03  0.17200000000E+03 0.  1.
         -6    1    1    2    0  501 -0.10995865345E+03  0.66861198795E+02  0.16020515413E+03  0.26797577648E+03  0.17200000000E+03 0.  1.
</event>
<event>
 4    1  0.3196149E-002  0.1905418E+03  0.7818608E-02  0.1157974E+00
          2   -1    0    0  502    0  0.00000000000E+00  0.00000000000E+00  0.40725254823E+03  0.40725254823E+03  0.00000000000E+00 0. -1.
         -2   -1    0    0    0  501 -0.00000000000E+00 -0.00000000000E+00 -0.11896390877E+03  0.11896390877E+03  0.00000000000E+00 0.  1.
          6    1    1    2  502    0 -0.10551473610E+01  0.81982068116E+02  0.27586176075E+03  0.33526986723E+03  0.17200000000E+03 0. -1.
         -6    1    1    2    0  501  0.10551473610E+01 -0.81982068116E+02  0.12426878708E+02  0.19094658977E+03  0.17200000000E+03 0.  1.
</event>
<event>
 4    1  0.3196149E-002  0.4699554E+03  0.7818608E-02  0.1021933E+00
          2   -1    0    0  502    0  0.00000000000E+00  0.00000000000E+00  0.70843735481E+03  0.70843735481E+03  0.00000000000E+00 0. -1.
         -2   -1    0    0    0  501 -0.00000000000E+00 -0.00000000000E+00 -0.11532895504E+04  0.11532895504E+04  0.00000000000E+00 0.  1.
          6    1    1    2  502    0  0.41106874559E+03  0.14932018787E+03  0.57273127135E+03  0.74086378052E+03  0.17200000000E+03 0. -1.
         -6    1    1    2    0  501 -0.41106874559E+03 -0.14932018787E+03 -0.10175834670E+04  0.11208631247E+04  0.17200000000E+03 0.  1.
</event>
<event>
 4    1  0.3196149E-002  0.2430659E+03  0.7818608E-02  0.1117767E+00
         -2   -1    0    0    0  501 -0.00000000000E+00  0.00000000000E+00  0.24845382561E+02  0.24845382561E+02  0.00000000000E+00 0.  1.
          2   -1    0    0  502    0  0.00000000000E+00 -0.00000000000E+00 -0.23824328421E+04  0.23824328421E+04  0.00000000000E+00 0. -1.
          6    1    1    2  502    0 -0.17325162496E+01 -0.17173819437E+03 -0.12310208497E+04  0.12547881660E+04  0.17200000000E+03 0. -1.
         -6    1    1    2    0  501  0.17325162496E+01  0.17173819437E+03 -0.11265666099E+04  0.11524900587E+04  0.17200000000E+03 0. -1.
</event>
<event>
 4    1  0.3196149E-002  0.1978882E+03  0.7818608E-02  0.1151533E+00
          1   -1    0    0  502    0  0.00000000000E+00  0.00000000000E+00  0.11140305513E+03  0.11140305513E+03  0.00000000000E+00 0. -1.
         -1   -1    0    0    0  501 -0.00000000000E+00 -0.00000000000E+00 -0.40989199138E+03  0.40989199138E+03  0.00000000000E+00 0.  1.
          6    1    1    2  502    0 -0.63721083471E+02 -0.74265614299E+02 -0.50879004222E+02  0.20432432801E+03  0.17200000000E+03 0. -1.
         -6    1    1    2    0  501  0.63721083471E+02  0.74265614299E+02 -0.24760993202E+03  0.31697071849E+03  0.17200000000E+03 0.  1.
</event>
<event>
 4    1  0.3196149E-002  0.3320231E+03  0.7818608E-02  0.1070245E+00
         -2   -1    0    0    0  501 -0.00000000000E+00  0.00000000000E+00  0.12402877700E+03  0.12402877700E+03  0.00000000000E+00 0.  1.
          2   -1    0    0  502    0  0.00000000000E+00 -0.00000000000E+00 -0.99524542478E+03  0.99524542478E+03  0.00000000000E+00 0. -1.
          6    1    1    2  502    0  0.13063363893E+02  0.28369822625E+03 -0.25260337900E+03  0.41719036678E+03  0.17200000000E+03 0. -1.
         -6    1    1    2    0  501 -0.13063363893E+02 -0.28369822625E+03 -0.61861326878E+03  0.70208383500E+03  0.17200000000E+03 0.  1.
</event>
<event>
 4    1  0.3196149E-002  0.3331369E+03  0.7818608E-02  0.1069757E+00
          2   -1    0    0  502    0  0.00000000000E+00  0.00000000000E+00  0.18095785570E+04  0.18095785570E+04  0.00000000000E+00 0. -1.
         -2   -1    0    0    0  501 -0.00000000000E+00 -0.00000000000E+00 -0.72427885432E+02  0.72427885432E+02  0.00000000000E+00 0.  1.
          6    1    1    2  502    0  0.17674582123E+03 -0.22395781550E+03  0.12369349398E+04  0.12810106299E+04  0.17200000000E+03 0. -1.
         -6    1    1    2    0  501 -0.17674582123E+03  0.22395781550E+03  0.50021573170E+03  0.60099581254E+03  0.17200000000E+03 0.  1.
</event>
<event>
 4    1  0.3196149E-002  0.2530266E+03  0.7818608E-02  0.1111407E+00
         -2   -1    0    0    0  501 -0.00000000000E+00  0.00000000000E+00  0.15851325881E+03  0.15851325881E+03  0.00000000000E+00 0.  1.
          2   -1    0    0  502    0  0.00000000000E+00 -0.00000000000E+00 -0.40699151426E+03  0.40699151426E+03  0.00000000000E+00 0. -1.
          6    1    1    2  502    0 -0.23619264387E+02  0.18406681634E+03 -0.14890865211E+03  0.29359197741E+03  0.17200000000E+03 0. -1.
         -6    1    1    2    0  501  0.23619264387E+02 -0.18406681634E+03 -0.99569603345E+02  0.27191279565E+03  0.17200000000E+03 0.  1.
</event>
<event>
 4    1  0.3196149E-002  0.3265602E+03  0.7818608E-02  0.1072669E+00
          1   -1    0    0  502    0  0.00000000000E+00  0.00000000000E+00  0.25673623557E+04  0.25673623557E+04  0.00000000000E+00 0. -1.
         -1   -1    0    0    0  501 -0.00000000000E+00 -0.00000000000E+00 -0.56789882592E+02  0.56789882592E+02  0.00000000000E+00 0.  1.
          6    1    1    2  502    0  0.12185732030E+03  0.24941603039E+03  0.19352625483E+04  0.19626213831E+04  0.17200000000E+03 0. -1.
         -6    1    1    2    0  501 -0.12185732030E+03 -0.24941603039E+03  0.57530992479E+03  0.66153085513E+03  0.17200000000E+03 0.  1.
</event>
<event>
 4    1  0.3196149E-002  0.3919631E+03  0.7818608E-02  0.1046599E+00
          3   -1    0    0  502    0  0.00000000000E+00  0.00000000000E+00  0.12618969618E+03  0.12618969618E+03  0.00000000000E+00 0. -1.
         -3   -1    0    0    0  501 -0.00000000000E+00 -0.00000000000E+00 -0.12179210510E+04  0.12179210510E+04  0.00000000000E+00 0.  1.
          6    1    1    2  502    0 -0.11487945895E+03  0.33294714464E+03 -0.53326873546E+03  0.66182371930E+03  0.17200000000E+03 0. -1.
         -6    1    1    2    0  501  0.11487945895E+03 -0.33294714464E+03 -0.55846261939E+03  0.68228702792E+03  0.17200000000E+03 0.  1.
</event>
<event>
 4    1  0.3196149E-002  0.2502190E+03  0.7818608E-02  0.1113167E+00
         -1   -1    0    0    0  501 -0.00000000000E+00  0.00000000000E+00  0.63377648930E+02  0.63377648930E+02  0.00000000000E+00 0.  1.
          1   -1    0    0  502    0  0.00000000000E+00 -0.00000000000E+00 -0.10078378648E+04  0.10078378648E+04  0.00000000000E+00 0. -1.
          6    1    1    2  502    0  0.17567878752E+03  0.46502708991E+02 -0.54760106182E+03  0.60206018074E+03  0.17200000000E+03 0. -1.
         -6    1    1    2    0  501 -0.17567878752E+03 -0.46502708991E+02 -0.39685915410E+03  0.46915533304E+03  0.17200000000E+03 0.  1.
</event>
<event>
 4    1  0.3196149E-002  0.5287172E+03  0.7818608E-02  0.1006544E+00
         -2   -1    0    0    0  501 -0.00000000000E+00  0.00000000000E+00  0.14753640902E+03  0.14753640902E+03  0.00000000000E+00 0.  1.
          2   -1    0    0  502    0  0.00000000000E+00 -0.00000000000E+00 -0.26154602880E+04  0.26154602880E+04  0.00000000000E+00 0. -1.
          6    1    1    2  502    0  0.46478078691E+03  0.18421911450E+03 -0.19591694273E+04  0.20292576738E+04  0.17200000000E+03 0. -1.
         -6    1    1    2    0  501 -0.46478078691E+03 -0.18421911450E+03 -0.50875445169E+03  0.73373902318E+03  0.17200000000E+03 0.  1.
</event>
<event>
 4    1  0.3196149E-002  0.2501855E+03  0.7818608E-02  0.1113188E+00
         -2   -1    0    0    0  501 -0.00000000000E+00  0.00000000000E+00  0.15257510073E+03  0.15257510073E+03  0.00000000000E+00 0.  1.
          2   -1    0    0  502    0  0.00000000000E+00 -0.00000000000E+00 -0.61741554829E+03  0.61741554829E+03  0.00000000000E+00 0. -1.
          6    1    1    2  502    0  0.10327205872E+03  0.14947804931E+03 -0.45543477579E+03  0.51962836752E+03  0.17200000000E+03 0. -1.
         -6    1    1    2    0  501 -0.10327205872E+03 -0.14947804931E+03 -0.94056717658E+01  0.25036228150E+03  0.17200000000E+03 0.  1.
</event>
<event>
 4    1  0.3196149E-002  0.1784894E+03  0.7818608E-02  0.1169273E+00
         -2   -1    0    0    0  501 -0.00000000000E+00  0.00000000000E+00  0.10784158122E+03  0.10784158122E+03  0.00000000000E+00 0.  1.
          2   -1    0    0  502    0  0.00000000000E+00 -0.00000000000E+00 -0.50158929172E+03  0.50158929172E+03  0.00000000000E+00 0. -1.
          6    1    1    2  502    0 -0.32700965552E+02  0.34714785490E+02 -0.39223275478E+03  0.43093503386E+03  0.17200000000E+03 0. -1.
         -6    1    1    2    0  501  0.32700965552E+02 -0.34714785490E+02 -0.15149557083E+01  0.17849583908E+03  0.17200000000E+03 0.  1.
</event>
<event>
 4    1  0.3196149E-002  0.1752089E+03  0.7818608E-02  0.1172522E+00
         -1   -1    0    0    0  501 -0.00000000000E+00  0.00000000000E+00  0.57152722279E+03  0.57152722279E+03  0.00000000000E+00 0.  1.
          1   -1    0    0  502    0  0.00000000000E+00 -0.00000000000E+00 -0.58760388903E+02  0.58760388903E+02  0.00000000000E+00 0. -1.
          6    1    1    2  502    0  0.14460231519E+02 -0.30084237529E+02  0.34875131506E+03  0.39028917408E+03  0.17200000000E+03 0.  1.
         -6    1    1    2    0  501 -0.14460231519E+02  0.30084237529E+02  0.16401551883E+03  0.23999843762E+03  0.17200000000E+03 0. -1.
</event>
<event>
 4    1  0.3196149E-002  0.2365931E+03  0.7818608E-02  0.1122083E+00
          2   -1    0    0  502    0  0.00000000000E+00  0.00000000000E+00  0.72568778367E+03  0.72568778367E+03  0.00000000000E+00 0. -1.
         -2   -1    0    0    0  501 -0.00000000000E+00 -0.00000000000E+00 -0.77805222896E+02  0.77805222896E+02  0.00000000000E+00 0.  1.
          6    1    1    2  502    0  0.40062794502E+02  0.15743971832E+03  0.36121427133E+03  0.43180092893E+03  0.17200000000E+03 0. -1.
         -6    1    1    2    0  501 -0.40062794502E+02 -0.15743971832E+03  0.28666828944E+03  0.37169207764E+03  0.17200000000E+03 0.  1.
</event>
<event>
 4    1  0.3196149E-002  0.2053304E+03  0.7818608E-02  0.1145318E+00
          1   -1    0    0  502    0  0.00000000000E+00  0.00000000000E+00  0.23251256990E+03  0.23251256990E+03  0.00000000000E+00 0. -1.
         -1   -1    0    0    0  501 -0.00000000000E+00 -0.00000000000E+00 -0.38797614250E+03  0.38797614250E+03  0.00000000000E+00 0.  1.
          6    1    1    2  502    0 -0.20457215059E+02  0.11026366217E+03  0.14869053596E+03  0.25351419749E+03  0.17200000000E+03 0. -1.
         -6    1    1    2    0  501  0.20457215059E+02 -0.11026366217E+03 -0.30415410856E+03  0.36697451492E+03  0.17200000000E+03 0.  1.
</event>
<event>
 4    1  0.3196149E-002  0.3109717E+03  0.7818608E-02  0.1079881E+00
          2   -1    0    0  502    0  0.00000000000E+00  0.00000000000E+00  0.86079814601E+03  0.86079814601E+03  0.00000000000E+00 0. -1.
         -2   -1    0    0    0  501 -0.00000000000E+00 -0.00000000000E+00 -0.45337083683E+03  0.45337083683E+03  0.00000000000E+00 0.  1.
          6    1    1    2  502    0  0.24126947333E+03 -0.94384674145E+02  0.77360261588E+03  0.83376521441E+03  0.17200000000E+03 0. -1.
         -6    1    1    2    0  501 -0.24126947333E+03  0.94384674145E+02 -0.36617530670E+03  0.48040376842E+03  0.17200000000E+03 0.  1.
</event>
<event>
 4    1  0.3196149E-002  0.2431330E+03  0.7818608E-02  0.1117723E+00
          2   -1    0    0  502    0  0.00000000000E+00  0.00000000000E+00  0.98039256976E+02  0.98039256976E+02  0.00000000000E+00 0. -1.
         -2   -1    0    0    0  501 -0.00000000000E+00 -0.00000000000E+00 -0.65463109800E+03  0.65463109800E+03  0.00000000000E+00 0.  1.
          6    1    1    2  502    0 -0.12442932161E+03 -0.11852002914E+03 -0.17256439404E+03  0.29814782152E+03  0.17200000000E+03 0. -1.
         -6    1    1    2    0  501  0.12442932161E+03  0.11852002914E+03 -0.38402744698E+03  0.45452253345E+03  0.17200000000E+03 0.  1.
</event>
<event>
 4    1  0.3196149E-002  0.2092293E+03  0.7818608E-02  0.1142178E+00
          1   -1    0    0  502    0  0.00000000000E+00  0.00000000000E+00  0.31946045010E+03  0.31946045010E+03  0.00000000000E+00 0. -1.
         -1   -1    0    0    0  501 -0.00000000000E+00 -0.00000000000E+00 -0.21841637226E+03  0.21841637226E+03  0.00000000000E+00 0.  1.
          6    1    1    2  502    0 -0.11579232409E+03  0.28018878483E+02  0.21468516309E+03  0.29977764947E+03  0.17200000000E+03 0. -1.
         -6    1    1    2    0  501  0.11579232409E+03 -0.28018878483E+02 -0.11364108525E+03  0.23809917288E+03  0.17200000000E+03 0.  1.
</event>
<event>
 4    1  0.3196149E-002  0.2830917E+03  0.7818608E-02  0.1094012E+00
          2   -1    0    0  502    0  0.00000000000E+00  0.00000000000E+00  0.78991306805E+03  0.78991306805E+03  0.00000000000E+00 0. -1.
         -2   -1    0    0    0  501 -0.00000000000E+00 -0.00000000000E+00 -0.14834275840E+03  0.14834275840E+03  0.00000000000E+00 0.  1.
          6    1    1    2  502    0 -0.22016043590E+03  0.45676091131E+02  0.58453129913E+03  0.64947498990E+03  0.17200000000E+03 0. -1.
         -6    1    1    2    0  501  0.22016043590E+03 -0.45676091131E+02  0.57039010517E+02  0.28878083655E+03  0.17200000000E+03 0.  1.
</event>
<event>
 4    1  0.3196149E-002  0.2109770E+03  0.7818608E-02  0.1140795E+00
          2   -1    0    0  502    0  0.00000000000E+00  0.00000000000E+00  0.10970866346E+03  0.10970866346E+03  0.00000000000E+00 0. -1.
         -2   -1    0    0    0  501 -0.00000000000E+00 -0.00000000000E+00 -0.40573295990E+03  0.40573295990E+03  0.00000000000E+00 0.  1.
          6    1    1    2  502    0 -0.53633653909E+02  0.10977580399E+03 -0.14930766282E+03  0.25846484123E+03  0.17200000000E+03 0. -1.
         -6    1    1    2    0  501  0.53633653909E+02 -0.10977580399E+03 -0.14671663362E+03  0.25697678213E+03  0.17200000000E+03 0. -1.
</event>
<event>
 4    1  0.3196149E-002  0.2471453E+03  0.7818608E-02  0.1115122E+00
          2   -1    0    0  502    0  0.00000000000E+00  0.00000000000E+00  0.19702316196E+04  0.19702316196E+04  0.00000000000E+00 0. -1.
         -2   -1    0    0    0  501 -0.00000000000E+00 -0.00000000000E+00 -0.33002726561E+02  0.33002726561E+02  0.00000000000E+00 0.  1.
          6    1    1    2  502    0  0.12220860654E+03  0.12869278873E+03  0.12152408843E+04  0.12401174075E+04  0.17200000000E+03 0. -1.
         -6    1    1    2    0  501 -0.12220860654E+03 -0.12869278873E+03  0.72198800870E+03  0.76311693867E+03  0.17200000000E+03 0.  1.
</event>
<event>
 4    1  0.3196149E-002  0.2645453E+03  0.7818608E-02  0.1104443E+00
         -2   -1    0    0    0  501 -0.00000000000E+00  0.00000000000E+00  0.13043315277E+03  0.13043315277E+03  0.00000000000E+00 0.  1.
          2   -1    0    0  502    0  0.00000000000E+00 -0.00000000000E+00 -0.90572749549E+03  0.90572749549E+03  0.00000000000E+00 0. -1.
          6    1    1    2  502    0  0.19244831316E+03 -0.57998634785E+02 -0.71840843258E+03  0.76556833195E+03  0.17200000000E+03 0. -1.
         -6    1    1    2    0  501 -0.19244831316E+03  0.57998634785E+02 -0.56885910143E+02  0.27059231631E+03  0.17200000000E+03 0.  1.
</event>
<event>
 4    1  0.3196149E-002  0.2196548E+03  0.7818608E-02  0.1134141E+00
         -2   -1    0    0    0  501 -0.00000000000E+00  0.00000000000E+00  0.41803147579E+02  0.41803147579E+02  0.00000000000E+00 0.  1.
          2   -1    0    0  502    0  0.00000000000E+00 -0.00000000000E+00 -0.12810074177E+04  0.12810074177E+04  0.00000000000E+00 0. -1.
          6    1    1    2  502    0 -0.43654157587E+02  0.12945473961E+03 -0.82771753566E+03  0.85636705561E+03  0.17200000000E+03 0. -1.
         -6    1    1    2    0  501  0.43654157587E+02 -0.12945473961E+03 -0.41148673447E+03  0.46644350969E+03  0.17200000000E+03 0.  1.
</event>
<event>
 4    1  0.3196149E-002  0.2909138E+03  0.7818608E-02  0.1089873E+00
          1   -1    0    0  502    0  0.00000000000E+00  0.00000000000E+00  0.14982307765E+04  0.14982307765E+04  0.00000000000E+00 0. -1.
         -1   -1    0    0    0  501 -0.00000000000E+00 -0.00000000000E+00 -0.73280755824E+02  0.73280755824E+02  0.00000000000E+00 0.  1.
          6    1    1    2  502    0 -0.23366444530E+03 -0.21159812948E+02  0.10886278775E+04  0.11268280554E+04  0.17200000000E+03 0. -1.
         -6    1    1    2    0  501  0.23366444530E+03  0.21159812948E+02  0.33632214313E+03  0.44468347691E+03  0.17200000000E+03 0.  1.
</event>
<event>
 4    1  0.3196149E-002  0.2115093E+03  0.7818608E-02  0.1140376E+00
          1   -1    0    0  502    0  0.00000000000E+00  0.00000000000E+00  0.55457514102E+03  0.55457514102E+03  0.00000000000E+00 0. -1.
         -1   -1    0    0    0  501 -0.00000000000E+00 -0.00000000000E+00 -0.83540486341E+02  0.83540486341E+02  0.00000000000E+00 0.  1.
          6    1    1    2  502    0 -0.12280284032E+03  0.84651526549E+01  0.17634933693E+03  0.27538207101E+03  0.17200000000E+03 0.  1.
         -6    1    1    2    0  501  0.12280284032E+03 -0.84651526549E+01  0.29468531775E+03  0.36273355634E+03  0.17200000000E+03 0.  1.
</event>
<event>
 4    1  0.3196149E-002  0.2586259E+03  0.7818608E-02  0.1107972E+00
          1   -1    0    0  502    0  0.00000000000E+00  0.00000000000E+00  0.32005774079E+03  0.32005774079E+03  0.00000000000E+00 0. -1.
         -1   -1    0    0    0  501 -0.00000000000E+00 -0.00000000000E+00 -0.87543500149E+03  0.87543500149E+03  0.00000000000E+00 0.  1.
          6    1    1    2  502    0 -0.13599623407E+03  0.13714359548E+03  0.24385267035E+03  0.35545951429E+03  0.17200000000E+03 0. -1.
         -6    1    1    2    0  501  0.13599623407E+03 -0.13714359548E+03 -0.79922993104E+03  0.84003322800E+03  0.17200000000E+03 0.  1.
</event>
<event>
 4    1  0.3196149E-002  0.2912533E+03  0.7818608E-02  0.1089697E+00
          2   -1    0    0  502    0  0.00000000000E+00  0.00000000000E+00  0.67548177201E+03  0.67548177201E+03  0.00000000000E+00 0. -1.
         -2   -1    0    0    0  501 -0.00000000000E+00 -0.00000000000E+00 -0.12593976618E+03  0.12593976618E+03  0.00000000000E+00 0.  1.
          6    1    1    2  502    0  0.53243894520E+02  0.22893136223E+03  0.25341926412E+03  0.38606968845E+03  0.17200000000E+03 0. -1.
         -6    1    1    2    0  501 -0.53243894520E+02 -0.22893136223E+03  0.29612274171E+03  0.41535184973E+03  0.17200000000E+03 0.  1.
</event>
<event>
 4    1  0.3196149E-002  0.1747324E+03  0.7818608E-02  0.1173001E+00
         -2   -1    0    0    0  501 -0.00000000000E+00  0.00000000000E+00  0.16256635157E+03  0.16256635157E+03  0.00000000000E+00 0.  1.
          2   -1    0    0  502    0  0.00000000000E+00 -0.00000000000E+00 -0.54688467738E+03  0.54688467738E+03  0.00000000000E+00 0. -1.
          6    1    1    2  502    0  0.27201598510E+02 -0.14404249780E+02 -0.47959280496E+03  0.51043184456E+03  0.17200000000E+03 0. -1.
         -6    1    1    2    0  501 -0.27201598510E+02  0.14404249780E+02  0.95274479151E+02  0.19901918438E+03  0.17200000000E+03 0.  1.
</event>
<event>
 4    1  0.3196149E-002  0.2693223E+03  0.7818608E-02  0.1101668E+00
          1   -1    0    0  502    0  0.00000000000E+00  0.00000000000E+00  0.93341520691E+03  0.93341520691E+03  0.00000000000E+00 0. -1.
         -1   -1    0    0    0  501 -0.00000000000E+00 -0.00000000000E+00 -0.77709605766E+02  0.77709605766E+02  0.00000000000E+00 0.  1.
          6    1    1    2  502    0 -0.11965320986E+03 -0.16921470574E+03  0.42955313046E+03  0.50700137983E+03  0.17200000000E+03 0. -1.
         -6    1    1    2    0  501  0.11965320986E+03  0.16921470574E+03  0.42615247069E+03  0.50412343285E+03  0.17200000000E+03 0.  1.
</event>
<event>
 4    1  0.3196149E-002  0.3256304E+03  0.7818608E-02  0.1073087E+00
         -2   -1    0    0    0  501 -0.00000000000E+00  0.00000000000E+00  0.59746580963E+03  0.59746580963E+03  0.00000000000E+00 0.  1.
          2   -1    0    0  502    0  0.00000000000E+00 -0.00000000000E+00 -0.21029921300E+03  0.21029921300E+03  0.00000000000E+00 0. -1.
          6    1    1    2  502    0  0.25610887440E+03 -0.10420836933E+03  0.34019433994E+02  0.32740259876E+03  0.17200000000E+03 0. -1.
         -6    1    1    2    0  501 -0.25610887440E+03  0.10420836933E+03  0.35314716264E+03  0.48036242387E+03  0.17200000000E+03 0.  1.
</event>
<event>
 4    1  0.3196149E-002  0.1886922E+03  0.7818608E-02  0.1159646E+00
          4   -1    0    0  502    0  0.00000000000E+00  0.00000000000E+00  0.15399612099E+04  0.15399612099E+04  0.00000000000E+00 0. -1.
         -4   -1    0    0    0  501 -0.00000000000E+00 -0.00000000000E+00 -0.24179594912E+02  0.24179594912E+02  0.00000000000E+00 0.  1.
          6    1    1    2  502    0 -0.72093698301E+02  0.28692163285E+02  0.92156479827E+03  0.94068401654E+03  0.17200000000E+03 0. -1.
         -6    1    1    2    0  501  0.72093698301E+02 -0.28692163285E+02  0.59421681674E+03  0.62345678829E+03  0.17200000000E+03 0.  1.
</event>
<event>
 4    1  0.3196149E-002  0.2188068E+03  0.7818608E-02  0.1134776E+00
          2   -1    0    0  502    0  0.00000000000E+00  0.00000000000E+00  0.58558018637E+03  0.58558018637E+03  0.00000000000E+00 0. -1.
         -2   -1    0    0    0  501 -0.00000000000E+00 -0.00000000000E+00 -0.12579730190E+03  0.12579730190E+03  0.00000000000E+00 0.  1.
          6    1    1    2  502    0 -0.67765290165E+02  0.11704828027E+03  0.44034190044E+03  0.49170867772E+03  0.17200000000E+03 0. -1.
         -6    1    1    2    0  501  0.67765290165E+02 -0.11704828027E+03  0.19440984033E+02  0.21966881055E+03  0.17200000000E+03 0.  1.
</event>
<event>
 4    1  0.3196149E-002  0.1971511E+03  0.7818608E-02  0.1152165E+00
          2   -1    0    0  502    0  0.00000000000E+00  0.00000000000E+00  0.27633118337E+04  0.27633118337E+04  0.00000000000E+00 0. -1.
         -2   -1    0    0    0  501 -0.00000000000E+00 -0.00000000000E+00 -0.14491493833E+02  0.14491493833E+02  0.00000000000E+00 0.  1.
          6    1    1    2  502    0  0.83074327893E+02 -0.48817993974E+02  0.11363979891E+04  0.11533728496E+04  0.17200000000E+03 0.  1.
         -6    1    1    2    0  501 -0.83074327893E+02  0.48817993974E+02  0.16124223508E+04  0.16244304780E+04  0.17200000000E+03 0. -1.
</event>
<event>
 4    1  0.3196149E-002  0.2438900E+03  0.7818608E-02  0.1117228E+00
          1   -1    0    0  502    0  0.00000000000E+00  0.00000000000E+00  0.22190762012E+03  0.22190762012E+03  0.00000000000E+00 0. -1.
         -1   -1    0    0    0  501 -0.00000000000E+00 -0.00000000000E+00 -0.26869278148E+03  0.26869278148E+03  0.00000000000E+00 0.  1.
          6    1    1    2  502    0 -0.28371126068E+02  0.17056783998E+03 -0.35391588386E+02  0.24644446303E+03  0.17200000000E+03 0. -1.
         -6    1    1    2    0  501  0.28371126068E+02 -0.17056783998E+03 -0.11393572971E+02  0.24415593856E+03  0.17200000000E+03 0.  1.
</event>
<event>
 4    1  0.3196149E-002  0.2064192E+03  0.7818608E-02  0.1144433E+00
         -2   -1    0    0    0  501 -0.00000000000E+00  0.00000000000E+00  0.37379974764E+03  0.37379974764E+03  0.00000000000E+00 0.  1.
          2   -1    0    0  502    0  0.00000000000E+00 -0.00000000000E+00 -0.11674128249E+03  0.11674128249E+03  0.00000000000E+00 0. -1.
          6    1    1    2  502    0 -0.30928708295E+02 -0.10985585631E+03  0.90866268394E+02  0.22553397282E+03  0.17200000000E+03 0. -1.
         -6    1    1    2    0  501  0.30928708295E+02  0.10985585631E+03  0.16619219675E+03  0.26500705731E+03  0.17200000000E+03 0.  1.
</event>
<event>
 4    1  0.3196149E-002  0.3972082E+03  0.7818608E-02  0.1044751E+00
          2   -1    0    0  502    0  0.00000000000E+00  0.00000000000E+00  0.32306083922E+04  0.32306083922E+04  0.00000000000E+00 0. -1.
         -2   -1    0    0    0  501 -0.00000000000E+00 -0.00000000000E+00 -0.10433857749E+03  0.10433857749E+03  0.00000000000E+00 0.  1.
          6    1    1    2  502    0  0.34392439222E+03 -0.99530539956E+02  0.27792867993E+04  0.28075272801E+04  0.17200000000E+03 0. -1.
         -6    1    1    2    0  501 -0.34392439222E+03  0.99530539956E+02  0.34698301544E+03  0.52741968958E+03  0.17200000000E+03 0.  1.
</event>
<event>
 4    1  0.3196149E-002  0.1753168E+03  0.7818608E-02  0.1172414E+00
          2   -1    0    0  502    0  0.00000000000E+00  0.00000000000E+00  0.70689708463E+03  0.70689708463E+03  0.00000000000E+00 0. -1.
         -2   -1    0    0    0  501 -0.00000000000E+00 -0.00000000000E+00 -0.55542727323E+02  0.55542727323E+02  0.00000000000E+00 0.  1.
          6    1    1    2  502    0  0.11742937070E+02 -0.31844657066E+02  0.50333418648E+03  0.53299275983E+03  0.17200000000E+03 0. -1.
         -6    1    1    2    0  501 -0.11742937070E+02  0.31844657066E+02  0.14802017083E+03  0.22944705212E+03  0.17200000000E+03 0.  1.
</event>
<event>
 4    1  0.3196149E-002  0.3017673E+03  0.7818608E-02  0.1084360E+00
         -2   -1    0    0    0  501 -0.00000000000E+00  0.00000000000E+00  0.44259943171E+02  0.44259943171E+02  0.00000000000E+00 0.  1.
          2   -1    0    0  502    0  0.00000000000E+00 -0.00000000000E+00 -0.24504087401E+04  0.24504087401E+04  0.00000000000E+00 0. -1.
          6    1    1    2  502    0 -0.22654842493E+02 -0.24691342739E+03 -0.17025638505E+04  0.17291000977E+04  0.17200000000E+03 0. -1.
         -6    1    1    2    0  501  0.22654842493E+02  0.24691342739E+03 -0.70358494640E+03  0.76556858564E+03  0.17200000000E+03 0.  1.
</event>
<event>
 4    1  0.3196149E-002  0.2202936E+03  0.7818608E-02  0.1133664E+00
          2   -1    0    0  502    0  0.00000000000E+00  0.00000000000E+00  0.84084434186E+03  0.84084434186E+03  0.00000000000E+00 0. -1.
         -2   -1    0    0    0  501 -0.00000000000E+00 -0.00000000000E+00 -0.74900177235E+02  0.74900177235E+02  0.00000000000E+00 0.  1.
          6    1    1    2  502    0 -0.10863619600E+03 -0.84519029358E+02  0.60229324792E+03  0.64131618246E+03  0.17200000000E+03 0. -1.
         -6    1    1    2    0  501  0.10863619600E+03  0.84519029358E+02  0.16365091670E+03  0.27442833663E+03  0.17200000000E+03 0. -1.
</event>
<event>
 4    1  0.3196149E-002  0.1746008E+03  0.7818608E-02  0.1173133E+00
          3   -1    0    0  502    0  0.00000000000E+00  0.00000000000E+00  0.35102037974E+03  0.35102037974E+03  0.00000000000E+00 0. -1.
         -3   -1    0    0    0  501 -0.00000000000E+00 -0.00000000000E+00 -0.89130287938E+02  0.89130287938E+02  0.00000000000E+00 0.  1.
          6    1    1    2  502    0 -0.15719075981E+02  0.25580481349E+02  0.16616064977E+03  0.24102865371E+03  0.17200000000E+03 0. -1.
         -6    1    1    2    0  501  0.15719075981E+02 -0.25580481349E+02  0.95729442031E+02  0.19912201397E+03  0.17200000000E+03 0.  1.
</event>
<event>
 4    1  0.3196149E-002  0.2050374E+03  0.7818608E-02  0.1145557E+00
          2   -1    0    0  502    0  0.00000000000E+00  0.00000000000E+00  0.23589875333E+03  0.23589875333E+03  0.00000000000E+00 0. -1.
         -2   -1    0    0    0  501 -0.00000000000E+00 -0.00000000000E+00 -0.63274564673E+03  0.63274564673E+03  0.00000000000E+00 0.  1.
          6    1    1    2  502    0 -0.10311415978E+03  0.42705837197E+02  0.16968840164E+03  0.26614746313E+03  0.17200000000E+03 0. -1.
         -6    1    1    2    0  501  0.10311415978E+03 -0.42705837197E+02 -0.56653529505E+03  0.60249693693E+03  0.17200000000E+03 0.  1.
</event>
<event>
 4    1  0.3196149E-002  0.3100123E+03  0.7818608E-02  0.1080340E+00
         -2   -1    0    0    0  501 -0.00000000000E+00  0.00000000000E+00  0.69008139274E+03  0.69008139274E+03  0.00000000000E+00 0.  1.
          2   -1    0    0  502    0  0.00000000000E+00 -0.00000000000E+00 -0.43783929794E+03  0.43783929794E+03  0.00000000000E+00 0. -1.
          6    1    1    2  502    0 -0.24566757117E+03 -0.78556071726E+02 -0.33958705814E+03  0.45981189848E+03  0.17200000000E+03 0. -1.
         -6    1    1    2    0  501  0.24566757117E+03  0.78556071726E+02  0.59182915295E+03  0.66810879219E+03  0.17200000000E+03 0.  1.
</event>
<event>
 4    1  0.3196149E-002  0.3519782E+03  0.7818608E-02  0.1061806E+00
         -2   -1    0    0    0  501 -0.00000000000E+00  0.00000000000E+00  0.15721894070E+03  0.15721894070E+03  0.00000000000E+00 0.  1.
          2   -1    0    0  502    0  0.00000000000E+00 -0.00000000000E+00 -0.84556470726E+03  0.84556470726E+03  0.00000000000E+00 0. -1.
          6    1    1    2  502    0 -0.13497071685E+03 -0.27583974831E+03 -0.47499425960E+03  0.59119219194E+03  0.17200000000E+03 0. -1.
         -6    1    1    2    0  501  0.13497071685E+03  0.27583974831E+03 -0.21335150695E+03  0.41159145603E+03  0.17200000000E+03 0.  1.
</event>
<event>
 4    1  0.3196149E-002  0.3838351E+03  0.7818608E-02  0.1049525E+00
         -4   -1    0    0    0  501 -0.00000000000E+00  0.00000000000E+00  0.29647898609E+03  0.29647898609E+03  0.00000000000E+00 0.  1.
          4   -1    0    0  502    0  0.00000000000E+00 -0.00000000000E+00 -0.50383372774E+03  0.50383372774E+03  0.00000000000E+00 0. -1.
          6    1    1    2  502    0 -0.30919766431E+03  0.14880252093E+03 -0.15051760883E+03  0.41229229488E+03  0.17200000000E+03 0. -1.
         -6    1    1    2    0  501  0.30919766431E+03 -0.14880252093E+03 -0.56837132817E+02  0.38802041894E+03  0.17200000000E+03 0.  1.
</event>
<event>
 4    1  0.3196149E-002  0.1924935E+03  0.7818608E-02  0.1156231E+00
          1   -1    0    0  502    0  0.00000000000E+00  0.00000000000E+00  0.19020619991E+03  0.19020619991E+03  0.00000000000E+00 0. -1.
         -1   -1    0    0    0  501 -0.00000000000E+00 -0.00000000000E+00 -0.19614263201E+03  0.19614263201E+03  0.00000000000E+00 0.  1.
          6    1    1    2  502    0  0.42343528284E+02 -0.75344269973E+02 -0.18901552413E+02  0.19341923919E+03  0.17200000000E+03 0. -1.
         -6    1    1    2    0  501 -0.42343528284E+02  0.75344269973E+02  0.12965120308E+02  0.19292959273E+03  0.17200000000E+03 0. -1.
</event>
<event>
 4    1  0.3196149E-002  0.4194781E+03  0.7818608E-02  0.1037236E+00
         -2   -1    0    0    0  501 -0.00000000000E+00  0.00000000000E+00  0.18015792223E+03  0.18015792223E+03  0.00000000000E+00 0.  1.
          2   -1    0    0  502    0  0.00000000000E+00 -0.00000000000E+00 -0.14349608686E+04  0.14349608686E+04  0.00000000000E+00 0. -1.
          6    1    1    2  502    0  0.38000512030E+03 -0.44429624477E+02 -0.10837603659E+04  0.11621094672E+04  0.17200000000E+03 0. -1.
         -6    1    1    2    0  501 -0.38000512030E+03  0.44429624477E+02 -0.17104258047E+03  0.45300932366E+03  0.17200000000E+03 0.  1.
</event>
<event>
 4    1  0.3196149E-002  0.1769210E+03  0.7818608E-02  0.1170817E+00
          2   -1    0    0  502    0  0.00000000000E+00  0.00000000000E+00  0.44575211266E+03  0.44575211266E+03  0.00000000000E+00 0. -1.
         -2   -1    0    0    0  501 -0.00000000000E+00 -0.00000000000E+00 -0.10517296039E+03  0.10517296039E+03  0.00000000000E+00 0.  1.
          6    1    1    2  502    0  0.40931315029E+02 -0.64541329643E+01  0.32908869366E+03  0.37363136469E+03  0.17200000000E+03 0. -1.
         -6    1    1    2    0  501 -0.40931315029E+02  0.64541329643E+01  0.11490458605E+02  0.17729370835E+03  0.17200000000E+03 0.  1.
</event>
<event>
 4    1  0.3196149E-002  0.2025410E+03  0.7818608E-02  0.1147613E+00
          1   -1    0    0  502    0  0.00000000000E+00  0.00000000000E+00  0.16323354484E+04  0.16323354484E+04  0.00000000000E+00 0. -1.
         -1   -1    0    0    0  501 -0.00000000000E+00 -0.00000000000E+00 -0.33189798953E+02  0.33189798953E+02  0.00000000000E+00 0.  1.
          6    1    1    2  502    0  0.10072263981E+03  0.35969727430E+02  0.12099123541E+04  0.12267480492E+04  0.17200000000E+03 0. -1.
         -6    1    1    2    0  501 -0.10072263981E+03 -0.35969727430E+02  0.38923329530E+03  0.43877719817E+03  0.17200000000E+03 0.  1.
</event>
<event>
 4    1  0.3196149E-002  0.2437328E+03  0.7818608E-02  0.1117331E+00
          1   -1    0    0  502    0  0.00000000000E+00  0.00000000000E+00  0.36848100815E+03  0.36848100815E+03  0.00000000000E+00 0. -1.
         -1   -1    0    0    0  501 -0.00000000000E+00 -0.00000000000E+00 -0.17347126599E+03  0.17347126599E+03  0.00000000000E+00 0.  1.
          6    1    1    2  502    0  0.51755066983E+02  0.16475156342E+03  0.25485665088E+02  0.24506159171E+03  0.17200000000E+03 0.  1.
         -6    1    1    2    0  501 -0.51755066983E+02 -0.16475156342E+03  0.16952407708E+03  0.29689068243E+03  0.17200000000E+03 0. -1.
</event>
<event>
 4    1  0.3196149E-002  0.1922377E+03  0.7818608E-02  0.1156458E+00
          1   -1    0    0  502    0  0.00000000000E+00  0.00000000000E+00  0.17458376331E+04  0.17458376331E+04  0.00000000000E+00 0. -1.
         -1   -1    0    0    0  501 -0.00000000000E+00 -0.00000000000E+00 -0.26969849227E+02  0.26969849227E+02  0.00000000000E+00 0.  1.
          6    1    1    2  502    0  0.24770677818E+02 -0.82205430968E+02  0.44829572504E+03  0.48777492396E+03  0.17200000000E+03 0.  1.
         -6    1    1    2    0  501 -0.24770677818E+02  0.82205430968E+02  0.12705720588E+04  0.12850325583E+04  0.17200000000E+03 0. -1.
</event>
<event>
 4    1  0.3196149E-002  0.3560512E+03  0.7818608E-02  0.1060158E+00
         -2   -1    0    0    0  501 -0.00000000000E+00  0.00000000000E+00  0.18342932686E+03  0.18342932686E+03  0.00000000000E+00 0.  1.
          2   -1    0    0  502    0  0.00000000000E+00 -0.00000000000E+00 -0.14874329905E+04  0.14874329905E+04  0.00000000000E+00 0. -1.
          6    1    1    2  502    0  0.31082216172E+03  0.24042596164E+02 -0.12632712878E+04  0.13124887844E+04  0.17200000000E+03 0. -1.
         -6    1    1    2    0  501 -0.31082216172E+03 -0.24042596164E+02 -0.40732375806E+02  0.35837353291E+03  0.17200000000E+03 0.  1.
</event>
<event>
 4    1  0.3196149E-002  0.2445113E+03  0.7818608E-02  0.1116824E+00
          2   -1    0    0  502    0  0.00000000000E+00  0.00000000000E+00  0.18115787516E+03  0.18115787516E+03  0.00000000000E+00 0. -1.
         -2   -1    0    0    0  501 -0.00000000000E+00 -0.00000000000E+00 -0.40834716888E+03  0.40834716888E+03  0.00000000000E+00 0.  1.
          6    1    1    2  502    0  0.17294455318E+03  0.17086610478E+02  0.15497024485E+02  0.24500189489E+03  0.17200000000E+03 0. -1.
         -6    1    1    2    0  501 -0.17294455318E+03 -0.17086610478E+02 -0.24268631820E+03  0.34450314915E+03  0.17200000000E+03 0.  1.
</event>
<event>
 4    1  0.3196149E-002  0.2556982E+03  0.7818608E-02  0.1109756E+00
         -2   -1    0    0    0  501 -0.00000000000E+00  0.00000000000E+00  0.12593001085E+04  0.12593001085E+04  0.00000000000E+00 0.  1.
          2   -1    0    0  502    0  0.00000000000E+00 -0.00000000000E+00 -0.56174678323E+02  0.56174678323E+02  0.00000000000E+00 0. -1.
          6    1    1    2  502    0  0.18117715784E+03  0.54519687656E+02  0.78260015256E+03  0.82331315892E+03  0.17200000000E+03 0.  1.
         -6    1    1    2    0  501 -0.18117715784E+03 -0.54519687656E+02  0.42052527762E+03  0.49216162791E+03  0.17200000000E+03 0. -1.
</event>
<event>
 4    1  0.3196149E-002  0.1814292E+03  0.7818608E-02  0.1166427E+00
          3   -1    0    0  502    0  0.00000000000E+00  0.00000000000E+00  0.54717497890E+02  0.54717497890E+02  0.00000000000E+00 0. -1.
         -3   -1    0    0    0  501 -0.00000000000E+00 -0.00000000000E+00 -0.10302346190E+04  0.10302346190E+04  0.00000000000E+00 0.  1.
          6    1    1    2  502    0  0.11084378052E+02  0.56654049480E+02 -0.13783753877E+03  0.22785023997E+03  0.17200000000E+03 0. -1.
         -6    1    1    2    0  501 -0.11084378052E+02 -0.56654049480E+02 -0.83767958237E+03  0.85710187695E+03  0.17200000000E+03 0.  1.
</event>
<event>
 4    1  0.3196149E-002  0.5888299E+03  0.7818608E-02  0.9928855E-01
         -2   -1    0    0    0  501 -0.00000000000E+00  0.00000000000E+00  0.39016929606E+03  0.39016929606E+03  0.00000000000E+00 0.  1.
          2   -1    0    0  502    0  0.00000000000E+00 -0.00000000000E+00 -0.90512010287E+03  0.90512010287E+03  0.00000000000E+00 0. -1.
          6    1    1    2  502    0 -0.56288107002E+03  0.17364518412E+02 -0.17008897176E+03  0.61290364969E+03  0.17200000000E+03 0.  1.
         -6    1    1    2    0  501  0.56288107002E+03 -0.17364518412E+02 -0.34486183505E+03  0.68238574924E+03  0.17200000000E+03 0. -1.
</event>
<event>
 4    1  0.3196149E-002  0.3011134E+03  0.7818608E-02  0.1084685E+00
          2   -1    0    0  502    0  0.00000000000E+00  0.00000000000E+00  0.16598366539E+04  0.16598366539E+04  0.00000000000E+00 0. -1.
         -2   -1    0    0    0  501 -0.00000000000E+00 -0.00000000000E+00 -0.90107087718E+02  0.90107087718E+02  0.00000000000E+00 0.  1.
          6    1    1    2  502    0 -0.77533959336E+02 -0.23467796820E+03  0.13339208142E+04  0.13674845528E+04  0.17200000000E+03 0. -1.
         -6    1    1    2    0  501  0.77533959336E+02  0.23467796820E+03  0.23580875202E+03  0.38245918885E+03  0.17200000000E+03 0.  1.
</event>
<event>
 4    1  0.3196149E-002  0.2268598E+03  0.7818608E-02  0.1128870E+00
          2   -1    0    0  502    0  0.00000000000E+00  0.00000000000E+00  0.12805687917E+04  0.12805687917E+04  0.00000000000E+00 0. -1.
         -2   -1    0    0    0  501 -0.00000000000E+00 -0.00000000000E+00 -0.50197475284E+02  0.50197475284E+02  0.00000000000E+00 0.  1.
          6    1    1    2  502    0  0.45424654597E+01 -0.14785369135E+03  0.31808393364E+03  0.39069519690E+03  0.17200000000E+03 0.  1.
         -6    1    1    2    0  501 -0.45424654597E+01  0.14785369135E+03  0.91228738276E+03  0.94007107007E+03  0.17200000000E+03 0.  1.
</event>
<event>
 4    1  0.3196149E-002  0.2450687E+03  0.7818608E-02  0.1116462E+00
         -2   -1    0    0    0  501 -0.00000000000E+00  0.00000000000E+00  0.78198540800E+02  0.78198540800E+02  0.00000000000E+00 0.  1.
          2   -1    0    0  502    0  0.00000000000E+00 -0.00000000000E+00 -0.97459314120E+03  0.97459314120E+03  0.00000000000E+00 0. -1.
          6    1    1    2  502    0 -0.16594068966E+03  0.54206637286E+02 -0.69053961350E+03  0.73273708097E+03  0.17200000000E+03 0. -1.
         -6    1    1    2    0  501  0.16594068966E+03 -0.54206637286E+02 -0.20585498690E+03  0.32005460103E+03  0.17200000000E+03 0.  1.
</event>
<event>
 4    1  0.3196149E-002  0.1781966E+03  0.7818608E-02  0.1169560E+00
         -1   -1    0    0    0  501 -0.00000000000E+00  0.00000000000E+00  0.55649721166E+02  0.55649721166E+02  0.00000000000E+00 0.  1.
          1   -1    0    0  502    0  0.00000000000E+00 -0.00000000000E+00 -0.58692048369E+03  0.58692048369E+03  0.00000000000E+00 0. -1.
          6    1    1    2  502    0 -0.38878907881E+02  0.25660274742E+02 -0.21206823229E+03  0.27699630742E+03  0.17200000000E+03 0. -1.
         -6    1    1    2    0  501  0.38878907881E+02 -0.25660274742E+02 -0.31920253024E+03  0.36557389744E+03  0.17200000000E+03 0. -1.
</event>
<event>
 4    1  0.3196149E-002  0.2517670E+03  0.7818608E-02  0.1112193E+00
          1   -1    0    0  502    0  0.00000000000E+00  0.00000000000E+00  0.11968381572E+04  0.11968381572E+04  0.00000000000E+00 0. -1.
         -1   -1    0    0    0  501 -0.00000000000E+00 -0.00000000000E+00 -0.25174187721E+03  0.25174187721E+03  0.00000000000E+00 0.  1.
          6    1    1    2  502    0  0.16496446480E+03  0.81174841099E+02  0.11161558839E+04  0.11441986657E+04  0.17200000000E+03 0. -1.
         -6    1    1    2    0  501 -0.16496446480E+03 -0.81174841099E+02 -0.17105960396E+03  0.30438136865E+03  0.17200000000E+03 0.  1.
</event>
<event>
 4    1  0.3196149E-002  0.4517163E+03  0.7818608E-02  0.1027211E+00
          2   -1    0    0  502    0  0.00000000000E+00  0.00000000000E+00  0.18548973557E+03  0.18548973557E+03  0.00000000000E+00 0. -1.
         -2   -1    0    0    0  501 -0.00000000000E+00 -0.00000000000E+00 -0.21247189375E+04  0.21247189375E+04  0.00000000000E+00 0.  1.
          6    1    1    2  502    0  0.36103607858E+03  0.21003953618E+03 -0.16745159613E+03  0.48175480677E+03  0.17200000000E+03 0. -1.
         -6    1    1    2    0  501 -0.36103607858E+03 -0.21003953618E+03 -0.17717776058E+04  0.18284538663E+04  0.17200000000E+03 0.  1.
</event>
<event>
 4    1  0.3196149E-002  0.1743784E+03  0.7818608E-02  0.1173357E+00
         -2   -1    0    0    0  501 -0.00000000000E+00  0.00000000000E+00  0.34559485867E+02  0.34559485867E+02  0.00000000000E+00 0.  1.
          2   -1    0    0  502    0  0.00000000000E+00 -0.00000000000E+00 -0.14591881907E+04  0.14591881907E+04  0.00000000000E+00 0. -1.
          6    1    1    2  502    0  0.22357468582E+02 -0.17999488574E+02 -0.11829126584E+04  0.11956965315E+04  0.17200000000E+03 0. -1.
         -6    1    1    2    0  501 -0.22357468582E+02  0.17999488574E+02 -0.24171604648E+03  0.29805114514E+03  0.17200000000E+03 0.  1.
</event>
<event>
 4    1  0.3196149E-002  0.2660678E+03  0.7818608E-02  0.1103551E+00
         -1   -1    0    0    0  501 -0.00000000000E+00  0.00000000000E+00  0.54615816153E+02  0.54615816153E+02  0.00000000000E+00 0.  1.
          1   -1    0    0  502    0  0.00000000000E+00 -0.00000000000E+00 -0.13003533323E+04  0.13003533323E+04  0.00000000000E+00 0. -1.
          6    1    1    2  502    0 -0.11624362985E+03 -0.16641963859E+03 -0.66123667332E+03  0.71275943750E+03  0.17200000000E+03 0. -1.
         -6    1    1    2    0  501  0.11624362985E+03  0.16641963859E+03 -0.58450084286E+03  0.64220971099E+03  0.17200000000E+03 0.  1.
</event>
<event>
 4    1  0.3196149E-002  0.1850138E+03  0.7818608E-02  0.1163037E+00
          2   -1    0    0  502    0  0.00000000000E+00  0.00000000000E+00  0.25250974954E+04  0.25250974954E+04  0.00000000000E+00 0. -1.
         -2   -1    0    0    0  501 -0.00000000000E+00 -0.00000000000E+00 -0.13711738673E+02  0.13711738673E+02  0.00000000000E+00 0.  1.
          6    1    1    2  502    0 -0.51523567970E+01  0.67967354644E+02  0.13909981590E+04  0.14032483695E+04  0.17200000000E+03 0. -1.
         -6    1    1    2    0  501  0.51523567970E+01 -0.67967354644E+02  0.11203875978E+04  0.11355608646E+04  0.17200000000E+03 0. -1.
</event>
<event>
 4    1  0.3196149E-002  0.2058365E+03  0.7818608E-02  0.1144906E+00
         -2   -1    0    0    0  501 -0.00000000000E+00  0.00000000000E+00  0.34820066574E+02  0.34820066574E+02  0.00000000000E+00 0.  1.
          2   -1    0    0  502    0  0.00000000000E+00 -0.00000000000E+00 -0.12913087406E+04  0.12913087406E+04  0.00000000000E+00 0. -1.
          6    1    1    2  502    0  0.90323618386E+02 -0.68016986721E+02 -0.46895857397E+03  0.51214334968E+03  0.17200000000E+03 0.  1.
         -6    1    1    2    0  501 -0.90323618386E+02  0.68016986721E+02 -0.78753010010E+03  0.81398545754E+03  0.17200000000E+03 0. -1.
</event>
<event>
 4    1  0.3196149E-002  0.1767969E+03  0.7818608E-02  0.1170939E+00
         -2   -1    0    0    0  501 -0.00000000000E+00  0.00000000000E+00  0.44332532065E+02  0.44332532065E+02  0.00000000000E+00 0.  1.
          2   -1    0    0  502    0  0.00000000000E+00 -0.00000000000E+00 -0.13112303729E+04  0.13112303729E+04  0.00000000000E+00 0. -1.
          6    1    1    2  502    0  0.29114352950E+02 -0.28731648040E+02 -0.17261221457E+03  0.24708729179E+03  0.17200000000E+03 0.  1.
         -6    1    1    2    0  501 -0.29114352950E+02  0.28731648040E+02 -0.10942856263E+04  0.11084756132E+04  0.17200000000E+03 0. -1.
</event>
<event>
 4    1  0.3196149E-002  0.2053169E+03  0.7818608E-02  0.1145329E+00
         -3   -1    0    0    0  501 -0.00000000000E+00  0.00000000000E+00  0.25829387572E+03  0.25829387572E+03  0.00000000000E+00 0.  1.
          3   -1    0    0  502    0  0.00000000000E+00 -0.00000000000E+00 -0.49024008259E+03  0.49024008259E+03  0.00000000000E+00 0. -1.
          6    1    1    2  502    0 -0.10290002736E+03  0.44526779247E+02 -0.42165784921E+03  0.46898869016E+03  0.17200000000E+03 0. -1.
         -6    1    1    2    0  501  0.10290002736E+03 -0.44526779247E+02  0.18971164234E+03  0.27954526814E+03  0.17200000000E+03 0.  1.
</event>
<event>
 4    1  0.3196149E-002  0.1826271E+03  0.7818608E-02  0.1165284E+00
         -1   -1    0    0    0  501 -0.00000000000E+00  0.00000000000E+00  0.20722320850E+03  0.20722320850E+03  0.00000000000E+00 0.  1.
          1   -1    0    0  502    0  0.00000000000E+00 -0.00000000000E+00 -0.30358483023E+03  0.30358483023E+03  0.00000000000E+00 0. -1.
          6    1    1    2  502    0 -0.38186898671E+02  0.48066894360E+02 -0.22324601186E+03  0.28842927621E+03  0.17200000000E+03 0. -1.
         -6    1    1    2    0  501  0.38186898671E+02 -0.48066894360E+02  0.12688439013E+03  0.22237876253E+03  0.17200000000E+03 0.  1.
</event>
<event>
 4    1  0.3196149E-002  0.2835138E+03  0.7818608E-02  0.1093785E+00
          2   -1    0    0  502    0  0.00000000000E+00  0.00000000000E+00  0.23417324208E+04  0.23417324208E+04  0.00000000000E+00 0. -1.
         -2   -1    0    0    0  501 -0.00000000000E+00 -0.00000000000E+00 -0.35621316341E+02  0.35621316341E+02  0.00000000000E+00 0.  1.
          6    1    1    2  502    0  0.11831337790E+03  0.19182812991E+03  0.92630119656E+03  0.96871770582E+03  0.17200000000E+03 0. -1.
         -6    1    1    2    0  501 -0.11831337790E+03 -0.19182812991E+03  0.13798099079E+04  0.14086360314E+04  0.17200000000E+03 0.  1.
</event>
<event>
 4    1  0.3196149E-002  0.2051141E+03  0.7818608E-02  0.1145495E+00
         -1   -1    0    0    0  501 -0.00000000000E+00  0.00000000000E+00  0.15401323003E+02  0.15401323003E+02  0.00000000000E+00 0.  1.
          1   -1    0    0  502    0  0.00000000000E+00 -0.00000000000E+00 -0.27930127414E+04  0.27930127414E+04  0.00000000000E+00 0. -1.
          6    1    1    2  502    0  0.10897444627E+03  0.24746149634E+02 -0.15968559657E+04  0.16099753964E+04  0.17200000000E+03 0. -1.
         -6    1    1    2    0  501 -0.10897444627E+03 -0.24746149634E+02 -0.11807554527E+04  0.11984386680E+04  0.17200000000E+03 0.  1.
</event>
<event>
 4    1  0.3196149E-002  0.4765978E+03  0.7818608E-02  0.1020074E+00
          2   -1    0    0  502    0  0.00000000000E+00  0.00000000000E+00  0.44369465869E+03  0.44369465869E+03  0.00000000000E+00 0. -1.
         -2   -1    0    0    0  501 -0.00000000000E+00 -0.00000000000E+00 -0.72274599491E+03  0.72274599491E+03  0.00000000000E+00 0.  1.
          6    1    1    2  502    0  0.17862957075E+03  0.40700487497E+03  0.17545234784E+03  0.50786712648E+03  0.17200000000E+03 0. -1.
         -6    1    1    2    0  501 -0.17862957075E+03 -0.40700487497E+03 -0.45450368406E+03  0.65857352712E+03  0.17200000000E+03 0.  1.
</event>
<event>
 4    1  0.3196149E-002  0.2324779E+03  0.7818608E-02  0.1124908E+00
         -2   -1    0    0    0  501 -0.00000000000E+00  0.00000000000E+00  0.18838053342E+03  0.18838053342E+03  0.00000000000E+00 0.  1.
          2   -1    0    0  502    0  0.00000000000E+00 -0.00000000000E+00 -0.30222098875E+03  0.30222098875E+03  0.00000000000E+00 0. -1.
          6    1    1    2  502    0  0.14274065783E+03 -0.63930329166E+02 -0.16858428034E+01  0.23248403053E+03  0.17200000000E+03 0. -1.
         -6    1    1    2    0  501 -0.14274065783E+03  0.63930329166E+02 -0.11215461252E+03  0.25811749165E+03  0.17200000000E+03 0.  1.
</event>
<event>
 4    1  0.3196149E-002  0.1914869E+03  0.7818608E-02  0.1157127E+00
          2   -1    0    0  502    0  0.00000000000E+00  0.00000000000E+00  0.74958800801E+03  0.74958800801E+03  0.00000000000E+00 0. -1.
         -2   -1    0    0    0  501 -0.00000000000E+00 -0.00000000000E+00 -0.56005006978E+02  0.56005006978E+02  0.00000000000E+00 0.  1.
          6    1    1    2  502    0  0.65779256645E+02 -0.52500682755E+02  0.49009250179E+03  0.52617287331E+03  0.17200000000E+03 0. -1.
         -6    1    1    2    0  501 -0.65779256645E+02  0.52500682755E+02  0.20349049924E+03  0.27942014168E+03  0.17200000000E+03 0.  1.
</event>
<event>
 4    1  0.3196149E-002  0.2462899E+03  0.7818608E-02  0.1115672E+00
         -1   -1    0    0    0  501 -0.00000000000E+00  0.00000000000E+00  0.65033444157E+02  0.65033444157E+02  0.00000000000E+00 0.  1.
          1   -1    0    0  502    0  0.00000000000E+00 -0.00000000000E+00 -0.17657437068E+04  0.17657437068E+04  0.00000000000E+00 0. -1.
          6    1    1    2  502    0  0.16241193744E+03 -0.68535287089E+02 -0.14790898069E+04  0.14994550276E+04  0.17200000000E+03 0. -1.
         -6    1    1    2    0  501 -0.16241193744E+03  0.68535287089E+02 -0.22162045573E+03  0.33132212331E+03  0.17200000000E+03 0.  1.
</event>
<event>
 4    1  0.3196149E-002  0.1832058E+03  0.7818608E-02  0.1164736E+00
         -1   -1    0    0    0  501 -0.00000000000E+00  0.00000000000E+00  0.63172251403E+03  0.63172251403E+03  0.00000000000E+00 0.  1.
          1   -1    0    0  502    0  0.00000000000E+00 -0.00000000000E+00 -0.11172188450E+03  0.11172188450E+03  0.00000000000E+00 0. -1.
          6    1    1    2  502    0  0.50737552244E+02 -0.37497505065E+02 -0.91919406817E+01  0.18343623924E+03  0.17200000000E+03 0. -1.
         -6    1    1    2    0  501 -0.50737552244E+02  0.37497505065E+02  0.52919257022E+03  0.56000815929E+03  0.17200000000E+03 0.  1.
</event>
<event>
 4    1  0.3196149E-002  0.4388530E+03  0.7818608E-02  0.1031099E+00
          2   -1    0    0  502    0  0.00000000000E+00  0.00000000000E+00  0.79139587227E+03  0.79139587227E+03  0.00000000000E+00 0. -1.
         -2   -1    0    0    0  501 -0.00000000000E+00 -0.00000000000E+00 -0.26977791074E+03  0.26977791074E+03  0.00000000000E+00 0.  1.
          6    1    1    2  502    0  0.30512598386E+03 -0.26439756557E+03  0.94764288266E+02  0.44896793765E+03  0.17200000000E+03 0. -1.
         -6    1    1    2    0  501 -0.30512598386E+03  0.26439756557E+03  0.42685367327E+03  0.61220584536E+03  0.17200000000E+03 0.  1.
</event>
<event>
 4    1  0.3196149E-002  0.2594397E+03  0.7818608E-02  0.1107480E+00
          2   -1    0    0  502    0  0.00000000000E+00  0.00000000000E+00  0.11623908979E+03  0.11623908979E+03  0.00000000000E+00 0. -1.
         -2   -1    0    0    0  501 -0.00000000000E+00 -0.00000000000E+00 -0.68019478793E+03  0.68019478793E+03  0.00000000000E+00 0.  1.
          6    1    1    2  502    0 -0.24877333778E+02  0.19262932078E+03 -0.43553217363E+03  0.50694892369E+03  0.17200000000E+03 0. -1.
         -6    1    1    2    0  501  0.24877333778E+02 -0.19262932078E+03 -0.12842352451E+03  0.28948495403E+03  0.17200000000E+03 0.  1.
</event>
<event>
 4    1  0.3196149E-002  0.1772216E+03  0.7818608E-02  0.1170519E+00
          1   -1    0    0  502    0  0.00000000000E+00  0.00000000000E+00  0.69192338974E+03  0.69192338974E+03  0.00000000000E+00 0. -1.
         -1   -1    0    0    0  501 -0.00000000000E+00 -0.00000000000E+00 -0.64968361738E+02  0.64968361738E+02  0.00000000000E+00 0.  1.
          6    1    1    2  502    0  0.48181968404E+01  0.42429669988E+02  0.52121914272E+03  0.55052419261E+03  0.17200000000E+03 0. -1.
         -6    1    1    2    0  501 -0.48181968404E+01 -0.42429669988E+02  0.10573588529E+03  0.20636755887E+03  0.17200000000E+03 0.  1.
</event>
<event>
 4    1  0.3196149E-002  0.2175139E+03  0.7818608E-02  0.1135750E+00
          2   -1    0    0  502    0  0.00000000000E+00  0.00000000000E+00  0.10486317491E+03  0.10486317491E+03  0.00000000000E+00 0. -1.
         -2   -1    0    0    0  501 -0.00000000000E+00 -0.00000000000E+00 -0.53452037515E+03  0.53452037515E+03  0.00000000000E+00 0.  1.
          6    1    1    2  502    0  0.11065912259E+03  0.74046268325E+02 -0.88595288734E+02  0.23486467689E+03  0.17200000000E+03 0. -1.
         -6    1    1    2    0  501 -0.11065912259E+03 -0.74046268325E+02 -0.34106191151E+03  0.40451887316E+03  0.17200000000E+03 0.  1.
</event>
<event>
 4    1  0.3196149E-002  0.2501112E+03  0.7818608E-02  0.1113235E+00
          2   -1    0    0  502    0  0.00000000000E+00  0.00000000000E+00  0.14806189534E+04  0.14806189534E+04  0.00000000000E+00 0. -1.
         -2   -1    0    0    0  501 -0.00000000000E+00 -0.00000000000E+00 -0.47647003191E+02  0.47647003191E+02  0.00000000000E+00 0.  1.
          6    1    1    2  502    0  0.96112047683E+02  0.15405876195E+03  0.45930330819E+03  0.52298676537E+03  0.17200000000E+03 0.  1.
         -6    1    1    2    0  501 -0.96112047683E+02 -0.15405876195E+03  0.97366864199E+03  0.10052791912E+04  0.17200000000E+03 0. -1.
</event>
<event>
 4    1  0.3196149E-002  0.2950771E+03  0.7818608E-02  0.1087728E+00
         -1   -1    0    0    0  501 -0.00000000000E+00  0.00000000000E+00  0.85719864338E+02  0.85719864338E+02  0.00000000000E+00 0.  1.
          1   -1    0    0  502    0  0.00000000000E+00 -0.00000000000E+00 -0.33899941276E+04  0.33899941276E+04  0.00000000000E+00 0. -1.
          6    1    1    2  502    0  0.23426102192E+03 -0.51071128860E+02 -0.31065130662E+04  0.31204957806E+04  0.17200000000E+03 0. -1.
         -6    1    1    2    0  501 -0.23426102192E+03  0.51071128860E+02 -0.19776119715E+03  0.35521821138E+03  0.17200000000E+03 0.  1.
</event>
<event>
 4    1  0.3196149E-002  0.4292006E+03  0.7818608E-02  0.1034113E+00
          1   -1    0    0  502    0  0.00000000000E+00  0.00000000000E+00  0.11557112300E+04  0.11557112300E+04  0.00000000000E+00 0. -1.
         -1   -1    0    0    0  501 -0.00000000000E+00 -0.00000000000E+00 -0.15953311012E+03  0.15953311012E+03  0.00000000000E+00 0.  1.
          6    1    1    2  502    0 -0.28874222425E+03  0.26694021891E+03  0.51752531766E+03  0.67234336983E+03  0.17200000000E+03 0.  1.
         -6    1    1    2    0  501  0.28874222425E+03 -0.26694021891E+03  0.47865280224E+03  0.64290097031E+03  0.17200000000E+03 0. -1.
</event>
<event>
 4    1  0.3196149E-002  0.2549377E+03  0.7818608E-02  0.1110223E+00
         -1   -1    0    0    0  501 -0.00000000000E+00  0.00000000000E+00  0.67267212369E+02  0.67267212369E+02  0.00000000000E+00 0.  1.
          1   -1    0    0  502    0  0.00000000000E+00 -0.00000000000E+00 -0.13444953028E+04  0.13444953028E+04  0.00000000000E+00 0. -1.
          6    1    1    2  502    0  0.17799144045E+03 -0.61059675826E+02 -0.10130438517E+04  0.10446296389E+04  0.17200000000E+03 0. -1.
         -6    1    1    2    0  501 -0.17799144045E+03  0.61059675826E+02 -0.26418423874E+03  0.36713287634E+03  0.17200000000E+03 0.  1.
</event>
<event>
 4    1  0.3196149E-002  0.4873131E+03  0.7818608E-02  0.1017144E+00
          2   -1    0    0  502    0  0.00000000000E+00  0.00000000000E+00  0.10002390190E+04  0.10002390190E+04  0.00000000000E+00 0. -1.
         -2   -1    0    0    0  501 -0.00000000000E+00 -0.00000000000E+00 -0.25712780548E+03  0.25712780548E+03  0.00000000000E+00 0.  1.
          6    1    1    2  502    0  0.15894363757E+03 -0.42734875421E+03  0.19749260580E+03  0.52581115145E+03  0.17200000000E+03 0. -1.
         -6    1    1    2    0  501 -0.15894363757E+03  0.42734875421E+03  0.54561860773E+03  0.73155567303E+03  0.17200000000E+03 0. -1.
</event>
<event>
 4    1  0.3196149E-002  0.1853269E+03  0.7818608E-02  0.1162745E+00
          2   -1    0    0  502    0  0.00000000000E+00  0.00000000000E+00  0.41915390391E+03  0.41915390391E+03  0.00000000000E+00 0. -1.
         -2   -1    0    0    0  501 -0.00000000000E+00 -0.00000000000E+00 -0.85376564311E+02  0.85376564311E+02  0.00000000000E+00 0.  1.
          6    1    1    2  502    0 -0.34229383593E+02 -0.59919932781E+02  0.11628720041E+03  0.21878930966E+03  0.17200000000E+03 0. -1.
         -6    1    1    2    0  501  0.34229383593E+02  0.59919932781E+02  0.21749013919E+03  0.28574115855E+03  0.17200000000E+03 0. -1.
</event>
<event>
 4    1  0.3196149E-002  0.1731534E+03  0.7818608E-02  0.1174599E+00
          2   -1    0    0  502    0  0.00000000000E+00  0.00000000000E+00  0.14776069777E+04  0.14776069777E+04  0.00000000000E+00 0. -1.
         -2   -1    0    0    0  501 -0.00000000000E+00 -0.00000000000E+00 -0.15924348132E+03  0.15924348132E+03  0.00000000000E+00 0.  1.
          6    1    1    2  502    0  0.60850669233E+01  0.19002094419E+02  0.14236885380E+04  0.14341796125E+04  0.17200000000E+03 0. -1.
         -6    1    1    2    0  501 -0.60850669233E+01 -0.19002094419E+02 -0.10532504164E+03  0.20267084652E+03  0.17200000000E+03 0.  1.
</event>
<event>
 4    1  0.3196149E-002  0.7863549E+03  0.7818608E-02  0.9579981E-01
          2   -1    0    0  502    0  0.00000000000E+00  0.00000000000E+00  0.82098592550E+03  0.82098592550E+03  0.00000000000E+00 0. -1.
         -2   -1    0    0    0  501 -0.00000000000E+00 -0.00000000000E+00 -0.89308886534E+03  0.89308886534E+03  0.00000000000E+00 0.  1.
          6    1    1    2  502    0 -0.26880124115E+03 -0.71869042106E+03  0.30315784903E+03  0.84276847948E+03  0.17200000000E+03 0. -1.
         -6    1    1    2    0  501  0.26880124115E+03  0.71869042106E+03 -0.37526078887E+03  0.87130631137E+03  0.17200000000E+03 0.  1.
</event>
<event>
 4    1  0.3196149E-002  0.7876467E+03  0.7818608E-02  0.9578072E-01
          2   -1    0    0  502    0  0.00000000000E+00  0.00000000000E+00  0.12056233249E+04  0.12056233249E+04  0.00000000000E+00 0. -1.
         -2   -1    0    0    0  501 -0.00000000000E+00 -0.00000000000E+00 -0.72938575136E+03  0.72938575136E+03  0.00000000000E+00 0.  1.
          6    1    1    2  502    0 -0.68127614209E+03  0.35590191483E+03  0.76316707970E+03  0.10967275625E+04  0.17200000000E+03 0. -1.
         -6    1    1    2    0  501  0.68127614209E+03 -0.35590191483E+03 -0.28692950619E+03  0.83828151375E+03  0.17200000000E+03 0.  1.
</event>
<event>
 4    1  0.3196149E-002  0.1995614E+03  0.7818608E-02  0.1150110E+00
         -1   -1    0    0    0  501 -0.00000000000E+00  0.00000000000E+00  0.17086777004E+03  0.17086777004E+03  0.00000000000E+00 0.  1.
          1   -1    0    0  502    0  0.00000000000E+00 -0.00000000000E+00 -0.44425267636E+03  0.44425267636E+03  0.00000000000E+00 0. -1.
          6    1    1    2  502    0 -0.89597909656E+02  0.47042032939E+02 -0.34874366200E+03  0.40180452967E+03  0.17200000000E+03 0. -1.
         -6    1    1    2    0  501  0.89597909656E+02 -0.47042032939E+02  0.75358755677E+02  0.21331591674E+03  0.17200000000E+03 0.  1.
</event>
<event>
 4    1  0.3196149E-002  0.2019821E+03  0.7818608E-02  0.1148077E+00
          2   -1    0    0  502    0  0.00000000000E+00  0.00000000000E+00  0.79815316944E+03  0.79815316944E+03  0.00000000000E+00 0. -1.
         -2   -1    0    0    0  501 -0.00000000000E+00 -0.00000000000E+00 -0.25822106676E+03  0.25822106676E+03  0.00000000000E+00 0.  1.
          6    1    1    2  502    0  0.10492182232E+03 -0.14288864756E+02  0.74299691933E+03  0.76996180592E+03  0.17200000000E+03 0. -1.
         -6    1    1    2    0  501 -0.10492182232E+03  0.14288864756E+02 -0.20306481664E+03  0.28641243027E+03  0.17200000000E+03 0.  1.
</event>
<event>
 4    1  0.3196149E-002  0.1818292E+03  0.7818608E-02  0.1166044E+00
         -2   -1    0    0    0  501 -0.00000000000E+00  0.00000000000E+00  0.11655804425E+03  0.11655804425E+03  0.00000000000E+00 0.  1.
          2   -1    0    0  502    0  0.00000000000E+00 -0.00000000000E+00 -0.31825506441E+03  0.31825506441E+03  0.00000000000E+00 0. -1.
          6    1    1    2  502    0  0.46148101909E+02  0.36717978105E+02 -0.17253639367E+03  0.25066045633E+03  0.17200000000E+03 0. -1.
         -6    1    1    2    0  501 -0.46148101909E+02 -0.36717978105E+02 -0.29160626488E+02  0.18415265234E+03  0.17200000000E+03 0.  1.
</event>
