<event>
 4    1  0.5701701E+000  0.2310728E+03  0.7818608E-02  0.1125887E+00
         21   -1    0    0  503  502  0.00000000000E+00  0.00000000000E+00  0.66117224137E+02  0.66117224137E+02  0.00000000000E+00 0. -1.
         21   -1    0    0  501  503 -0.00000000000E+00 -0.00000000000E+00 -0.11822011152E+04  0.11822011152E+04  0.00000000000E+00 0. -1.
          6    1    1    2  501    0 -0.14750905620E+02  0.15360031705E+03 -0.20668508322E+03  0.31002156415E+03  0.17200000000E+03 0. -1.
         -6    1    1    2    0  502  0.14750905620E+02 -0.15360031705E+03 -0.90939880785E+03  0.93829677519E+03  0.17200000000E+03 0. -1.
</event>
<event>
 4    1  0.5701701E+000  0.2280919E+03  0.7818608E-02  0.1127990E+00
         21   -1    0    0  503  502  0.00000000000E+00  0.00000000000E+00  0.37162226602E+03  0.37162226602E+03  0.00000000000E+00 0. -1.
         21   -1    0    0  501  503 -0.00000000000E+00 -0.00000000000E+00 -0.22813421806E+03  0.22813421806E+03  0.00000000000E+00 0. -1.
          6    1    1    2  501    0  0.47289877204E+02 -0.14214627354E+03 -0.11464919920E+03  0.25528481045E+03  0.17200000000E+03 0.  1.
         -6    1    1    2    0  502 -0.47289877204E+02  0.14214627354E+03  0.25813724715E+03  0.34447167363E+03  0.17200000000E+03 0.  1.
</event>
<event>
 4    1  0.5701701E+000  0.1960495E+03  0.7818608E-02  0.1153115E+00
         21   -1    0    0  501  502  0.00000000000E+00  0.00000000000E+00  0.21987435395E+03  0.21987435395E+03  0.00000000000E+00 0.  1.
         21   -1    0    0  502  503 -0.00000000000E+00 -0.00000000000E+00 -0.29944347757E+03  0.29944347757E+03  0.00000000000E+00 0. -1.
          6    1    1    2  501    0  0.20564052253E+02 -0.91807067230E+02  0.12773658927E+03  0.23399156839E+03  0.17200000000E+03 0.  1.
         -6    1    1    2    0  503 -0.20564052253E+02  0.91807067230E+02 -0.20730571289E+03  0.28532626313E+03  0.17200000000E+03 0. -1.
</event>
<event>
 4    1  0.5701701E+000  0.2188930E+03  0.7818608E-02  0.1134711E+00
         21   -1    0    0  503  502  0.00000000000E+00  0.00000000000E+00  0.25952708695E+03  0.25952708695E+03  0.00000000000E+00 0.  1.
         21   -1    0    0  501  503 -0.00000000000E+00 -0.00000000000E+00 -0.18462185605E+03  0.18462185605E+03  0.00000000000E+00 0. -1.
          6    1    1    2  501    0 -0.69598721679E+02  0.11612992293E+03  0.37940676888E+02  0.22215678253E+03  0.17200000000E+03 0.  1.
         -6    1    1    2    0  502  0.69598721679E+02 -0.11612992293E+03  0.36964554018E+02  0.22199216048E+03  0.17200000000E+03 0.  1.
</event>
<event>
 4    1  0.5701701E+000  0.2542232E+03  0.7818608E-02  0.1110665E+00
         21   -1    0    0  501  502  0.00000000000E+00  0.00000000000E+00  0.53489244800E+03  0.53489244800E+03  0.00000000000E+00 0.  1.
         21   -1    0    0  502  503 -0.00000000000E+00 -0.00000000000E+00 -0.12601728133E+03  0.12601728133E+03  0.00000000000E+00 0.  1.
          6    1    1    2  501    0 -0.15807570129E+03  0.10028715758E+03  0.27150216357E+03  0.37194470844E+03  0.17200000000E+03 0.  1.
         -6    1    1    2    0  503  0.15807570129E+03 -0.10028715758E+03  0.13737300310E+03  0.28896502089E+03  0.17200000000E+03 0.  1.
</event>
<event>
 4    1  0.5701701E+000  0.2034146E+03  0.7818608E-02  0.1146890E+00
         21   -1    0    0  501  502  0.00000000000E+00  0.00000000000E+00  0.12959268106E+04  0.12959268106E+04  0.00000000000E+00 0.  1.
         21   -1    0    0  502  503 -0.00000000000E+00 -0.00000000000E+00 -0.39535794841E+02  0.39535794841E+02  0.00000000000E+00 0. -1.
          6    1    1    2  501    0  0.41026416462E+02 -0.10055017905E+03  0.33530150889E+03  0.39217930493E+03  0.17200000000E+03 0.  1.
         -6    1    1    2    0  503 -0.41026416462E+02  0.10055017905E+03  0.92108950688E+03  0.94328330052E+03  0.17200000000E+03 0.  1.
</event>
<event>
 4    1  0.5701701E+000  0.1838940E+03  0.7818608E-02  0.1164087E+00
         21   -1    0    0  503  502  0.00000000000E+00  0.00000000000E+00  0.25968931103E+04  0.25968931103E+04  0.00000000000E+00 0. -1.
         21   -1    0    0  501  503 -0.00000000000E+00 -0.00000000000E+00 -0.13390057952E+02  0.13390057952E+02  0.00000000000E+00 0. -1.
          6    1    1    2  501    0  0.32652395224E+02 -0.56274538282E+02  0.10753973347E+04  0.10910070715E+04  0.17200000000E+03 0. -1.
         -6    1    1    2    0  502 -0.32652395224E+02  0.56274538282E+02  0.15081057177E+04  0.15192760968E+04  0.17200000000E+03 0. -1.
</event>
<event>
 4    1  0.5701701E+000  0.2071595E+03  0.7818608E-02  0.1143835E+00
         21   -1    0    0  501  502  0.00000000000E+00  0.00000000000E+00  0.10489168973E+04  0.10489168973E+04  0.00000000000E+00 0.  1.
         21   -1    0    0  502  503 -0.00000000000E+00 -0.00000000000E+00 -0.53376487220E+02  0.53376487220E+02  0.00000000000E+00 0.  1.
          6    1    1    2  501    0 -0.44529354335E+02 -0.10652789345E+03  0.76408792450E+03  0.79167254079E+03  0.17200000000E+03 0.  1.
         -6    1    1    2    0  503  0.44529354335E+02  0.10652789345E+03  0.23145248562E+03  0.31062084376E+03  0.17200000000E+03 0.  1.
</event>
<event>
 4    1  0.5701701E+000  0.2137858E+03  0.7818608E-02  0.1138603E+00
         21   -1    0    0  501  502  0.00000000000E+00  0.00000000000E+00  0.41592574086E+03  0.41592574086E+03  0.00000000000E+00 0.  1.
         21   -1    0    0  502  503 -0.00000000000E+00 -0.00000000000E+00 -0.17739276964E+03  0.17739276964E+03  0.00000000000E+00 0.  1.
          6    1    1    2  501    0 -0.72999867025E+02 -0.10388169827E+03  0.30227185230E+03  0.37023325150E+03  0.17200000000E+03 0.  1.
         -6    1    1    2    0  503  0.72999867025E+02  0.10388169827E+03 -0.63738881078E+02  0.22308525900E+03  0.17200000000E+03 0.  1.
</event>
<event>
 4    1  0.5701701E+000  0.1828340E+03  0.7818608E-02  0.1165088E+00
         21   -1    0    0  503  502  0.00000000000E+00  0.00000000000E+00  0.17426129462E+02  0.17426129462E+02  0.00000000000E+00 0.  1.
         21   -1    0    0  501  503 -0.00000000000E+00 -0.00000000000E+00 -0.26502527496E+04  0.26502527496E+04  0.00000000000E+00 0.  1.
          6    1    1    2  501    0  0.61275848824E+02  0.94622898395E+01 -0.20173942195E+04  0.20256622872E+04  0.17200000000E+03 0.  1.
         -6    1    1    2    0  502 -0.61275848824E+02 -0.94622898395E+01 -0.61543240064E+03  0.64201659194E+03  0.17200000000E+03 0.  1.
</event>
<event>
 4    1  0.5701701E+000  0.1754559E+03  0.7818608E-02  0.1172275E+00
         21   -1    0    0  503  502  0.00000000000E+00  0.00000000000E+00  0.15554628104E+03  0.15554628104E+03  0.00000000000E+00 0. -1.
         21   -1    0    0  501  503 -0.00000000000E+00 -0.00000000000E+00 -0.50269581261E+03  0.50269581261E+03  0.00000000000E+00 0. -1.
          6    1    1    2  501    0  0.12208522242E+02 -0.32430318995E+02 -0.42984466936E+03  0.46427493297E+03  0.17200000000E+03 0. -1.
         -6    1    1    2    0  502 -0.12208522242E+02  0.32430318995E+02  0.82695137791E+02  0.19396716067E+03  0.17200000000E+03 0. -1.
</event>
<event>
 4    1  0.5701701E+000  0.2633674E+03  0.7818608E-02  0.1105137E+00
         21   -1    0    0  503  502  0.00000000000E+00  0.00000000000E+00  0.60615280299E+03  0.60615280299E+03  0.00000000000E+00 0. -1.
         21   -1    0    0  501  503 -0.00000000000E+00 -0.00000000000E+00 -0.13695693709E+03  0.13695693709E+03  0.00000000000E+00 0. -1.
          6    1    1    2  501    0  0.15103135704E+02 -0.19887248634E+03  0.83910456850E+02  0.27641153250E+03  0.17200000000E+03 0. -1.
         -6    1    1    2    0  502 -0.15103135704E+02  0.19887248634E+03  0.38528540905E+03  0.46669820758E+03  0.17200000000E+03 0. -1.
</event>
<event>
 4    1  0.5701701E+000  0.2453136E+03  0.7818608E-02  0.1116303E+00
         21   -1    0    0  501  502  0.00000000000E+00  0.00000000000E+00  0.17687643643E+02  0.17687643643E+02  0.00000000000E+00 0.  1.
         21   -1    0    0  502  503 -0.00000000000E+00 -0.00000000000E+00 -0.34304654072E+04  0.34304654072E+04  0.00000000000E+00 0. -1.
          6    1    1    2  501    0 -0.15387354241E+03 -0.83172661256E+02 -0.15501822814E+04  0.15694724796E+04  0.17200000000E+03 0.  1.
         -6    1    1    2    0  503  0.15387354241E+03  0.83172661256E+02 -0.18625954822E+04  0.18786805712E+04  0.17200000000E+03 0. -1.
</event>
<event>
 4    1  0.5701701E+000  0.3544335E+03  0.7818608E-02  0.1060810E+00
         21   -1    0    0  501  502  0.00000000000E+00  0.00000000000E+00  0.15639988547E+04  0.15639988547E+04  0.00000000000E+00 0.  1.
         21   -1    0    0  502  503 -0.00000000000E+00 -0.00000000000E+00 -0.88745990956E+02  0.88745990956E+02  0.00000000000E+00 0. -1.
          6    1    1    2  501    0  0.27271044668E+03 -0.14720094668E+03  0.48302130740E+03  0.59910991465E+03  0.17200000000E+03 0.  1.
         -6    1    1    2    0  503 -0.27271044668E+03  0.14720094668E+03  0.99223155638E+03  0.10536349310E+04  0.17200000000E+03 0.  1.
</event>
<event>
 4    1  0.5701701E+000  0.2351867E+03  0.7818608E-02  0.1123041E+00
         21   -1    0    0  501  502  0.00000000000E+00  0.00000000000E+00  0.55676299789E+03  0.55676299789E+03  0.00000000000E+00 0.  1.
         21   -1    0    0  502  503 -0.00000000000E+00 -0.00000000000E+00 -0.31547287089E+03  0.31547287089E+03  0.00000000000E+00 0. -1.
          6    1    1    2  501    0  0.85895566412E+02 -0.13546492290E+03  0.48161930052E+03  0.53597569376E+03  0.17200000000E+03 0. -1.
         -6    1    1    2    0  503 -0.85895566412E+02  0.13546492290E+03 -0.24032917352E+03  0.33626017503E+03  0.17200000000E+03 0. -1.
</event>
<event>
 4    1  0.5701701E+000  0.1771192E+03  0.7818608E-02  0.1170621E+00
         21   -1    0    0  501  502  0.00000000000E+00  0.00000000000E+00  0.28828542411E+02  0.28828542411E+02  0.00000000000E+00 0. -1.
         21   -1    0    0  502  503 -0.00000000000E+00 -0.00000000000E+00 -0.22857239321E+04  0.22857239321E+04  0.00000000000E+00 0. -1.
          6    1    1    2  501    0 -0.30529557754E+02 -0.29243253036E+02 -0.29078873780E+03  0.34048393762E+03  0.17200000000E+03 0. -1.
         -6    1    1    2    0  503  0.30529557754E+02  0.29243253036E+02 -0.19661066519E+04  0.19740685369E+04  0.17200000000E+03 0. -1.
</event>
<event>
 4    1  0.5701701E+000  0.2312971E+03  0.7818608E-02  0.1125730E+00
         21   -1    0    0  503  502  0.00000000000E+00  0.00000000000E+00  0.81694988762E+03  0.81694988762E+03  0.00000000000E+00 0. -1.
         21   -1    0    0  501  503 -0.00000000000E+00 -0.00000000000E+00 -0.14312279264E+03  0.14312279264E+03  0.00000000000E+00 0.  1.
          6    1    1    2  501    0  0.12731922495E+03  0.87773442412E+02 -0.16639788341E+02  0.23189490031E+03  0.17200000000E+03 0.  1.
         -6    1    1    2    0  502 -0.12731922495E+03 -0.87773442412E+02  0.69046688333E+03  0.72817777995E+03  0.17200000000E+03 0. -1.
</event>
<event>
 4    1  0.5701701E+000  0.1756622E+03  0.7818608E-02  0.1172068E+00
         21   -1    0    0  503  502  0.00000000000E+00  0.00000000000E+00  0.68649395118E+03  0.68649395118E+03  0.00000000000E+00 0. -1.
         21   -1    0    0  501  503 -0.00000000000E+00 -0.00000000000E+00 -0.44970897928E+02  0.44970897928E+02  0.00000000000E+00 0. -1.
          6    1    1    2  501    0 -0.21444635227E+02  0.28519287106E+02  0.31269252770E+03  0.35865559942E+03  0.17200000000E+03 0.  1.
         -6    1    1    2    0  502  0.21444635227E+02 -0.28519287106E+02  0.32883052555E+03  0.37280924969E+03  0.17200000000E+03 0.  1.
</event>
<event>
 4    1  0.5701701E+000  0.1722296E+03  0.7818608E-02  0.1175542E+00
         21   -1    0    0  503  502  0.00000000000E+00  0.00000000000E+00  0.53137126233E+02  0.53137126233E+02  0.00000000000E+00 0. -1.
         21   -1    0    0  501  503 -0.00000000000E+00 -0.00000000000E+00 -0.56340607500E+03  0.56340607500E+03  0.00000000000E+00 0. -1.
          6    1    1    2  501    0  0.46457089298E+01  0.75805412323E+01 -0.28466551499E+03  0.33271234218E+03  0.17200000000E+03 0.  1.
         -6    1    1    2    0  502 -0.46457089298E+01 -0.75805412323E+01 -0.22560343378E+03  0.28383085905E+03  0.17200000000E+03 0.  1.
</event>
<event>
 4    1  0.5701701E+000  0.2493400E+03  0.7818608E-02  0.1113723E+00
         21   -1    0    0  501  502  0.00000000000E+00  0.00000000000E+00  0.67016457725E+03  0.67016457725E+03  0.00000000000E+00 0. -1.
         21   -1    0    0  502  503 -0.00000000000E+00 -0.00000000000E+00 -0.10379495092E+03  0.10379495092E+03  0.00000000000E+00 0.  1.
          6    1    1    2  501    0  0.99214920814E+02  0.15080734572E+03  0.40931219840E+03  0.47927751021E+03  0.17200000000E+03 0.  1.
         -6    1    1    2    0  503 -0.99214920814E+02 -0.15080734572E+03  0.15705742793E+03  0.29468201795E+03  0.17200000000E+03 0.  1.
</event>
<event>
 4    1  0.5701701E+000  0.1820591E+03  0.7818608E-02  0.1165825E+00
         21   -1    0    0  503  502  0.00000000000E+00  0.00000000000E+00  0.11034759946E+03  0.11034759946E+03  0.00000000000E+00 0.  1.
         21   -1    0    0  501  503 -0.00000000000E+00 -0.00000000000E+00 -0.15220313943E+04  0.15220313943E+04  0.00000000000E+00 0.  1.
          6    1    1    2  501    0 -0.26344826664E+02  0.53548739800E+02 -0.14370718333E+04  0.14485582389E+04  0.17200000000E+03 0.  1.
         -6    1    1    2    0  502  0.26344826664E+02 -0.53548739800E+02  0.25388038444E+02  0.18382075487E+03  0.17200000000E+03 0.  1.
</event>
<event>
 4    1  0.5701701E+000  0.2140816E+03  0.7818608E-02  0.1138374E+00
         21   -1    0    0  501  502  0.00000000000E+00  0.00000000000E+00  0.27766331475E+03  0.27766331475E+03  0.00000000000E+00 0. -1.
         21   -1    0    0  502  503 -0.00000000000E+00 -0.00000000000E+00 -0.29425426349E+03  0.29425426349E+03  0.00000000000E+00 0.  1.
          6    1    1    2  501    0  0.12723631057E+03  0.76056130496E+01  0.18118514176E+03  0.28046208241E+03  0.17200000000E+03 0.  1.
         -6    1    1    2    0  503 -0.12723631057E+03 -0.76056130496E+01 -0.19777609050E+03  0.29145549583E+03  0.17200000000E+03 0.  1.
</event>
<event>
 4    1  0.5701701E+000  0.4146525E+03  0.7818608E-02  0.1038821E+00
         21   -1    0    0  503  502  0.00000000000E+00  0.00000000000E+00  0.34398330426E+03  0.34398330426E+03  0.00000000000E+00 0.  1.
         21   -1    0    0  501  503 -0.00000000000E+00 -0.00000000000E+00 -0.83870277546E+03  0.83870277546E+03  0.00000000000E+00 0. -1.
          6    1    1    2  501    0  0.31737068283E+03 -0.20403080921E+03 -0.62323797380E+03  0.74857350568E+03  0.17200000000E+03 0.  1.
         -6    1    1    2    0  502 -0.31737068283E+03  0.20403080921E+03  0.12851850260E+03  0.43411257403E+03  0.17200000000E+03 0.  1.
</event>
<event>
 4    1  0.5701701E+000  0.2470484E+03  0.7818608E-02  0.1115184E+00
         21   -1    0    0  503  502  0.00000000000E+00  0.00000000000E+00  0.68150572277E+03  0.68150572277E+03  0.00000000000E+00 0. -1.
         21   -1    0    0  501  503 -0.00000000000E+00 -0.00000000000E+00 -0.12344970125E+03  0.12344970125E+03  0.00000000000E+00 0.  1.
          6    1    1    2  501    0  0.13125151504E+03 -0.11925584946E+03  0.68137813063E+02  0.25627266612E+03  0.17200000000E+03 0.  1.
         -6    1    1    2    0  502 -0.13125151504E+03  0.11925584946E+03  0.48991820846E+03  0.54868275790E+03  0.17200000000E+03 0. -1.
</event>
<event>
 4    1  0.5701701E+000  0.2355068E+03  0.7818608E-02  0.1122823E+00
         21   -1    0    0  501  502  0.00000000000E+00  0.00000000000E+00  0.42050782761E+03  0.42050782761E+03  0.00000000000E+00 0.  1.
         21   -1    0    0  502  503 -0.00000000000E+00 -0.00000000000E+00 -0.23664591535E+03  0.23664591535E+03  0.00000000000E+00 0.  1.
          6    1    1    2  501    0 -0.14909634753E+03 -0.60412907808E+02  0.31053773990E+03  0.38973982114E+03  0.17200000000E+03 0.  1.
         -6    1    1    2    0  503  0.14909634753E+03  0.60412907808E+02 -0.12667582765E+03  0.26741392182E+03  0.17200000000E+03 0.  1.
</event>
<event>
 4    1  0.5701701E+000  0.2235323E+03  0.7818608E-02  0.1131277E+00
         21   -1    0    0  501  502  0.00000000000E+00  0.00000000000E+00  0.95474077373E+03  0.95474077373E+03  0.00000000000E+00 0. -1.
         21   -1    0    0  502  503 -0.00000000000E+00 -0.00000000000E+00 -0.11923153577E+03  0.11923153577E+03  0.00000000000E+00 0. -1.
          6    1    1    2  501    0 -0.90025858669E+02 -0.11080635641E+03  0.81997878423E+03  0.84990111803E+03  0.17200000000E+03 0. -1.
         -6    1    1    2    0  503  0.90025858669E+02  0.11080635641E+03  0.15530453733E+02  0.22407119146E+03  0.17200000000E+03 0. -1.
</event>
<event>
 4    1  0.5701701E+000  0.3642369E+03  0.7818608E-02  0.1056919E+00
         21   -1    0    0  501  502  0.00000000000E+00  0.00000000000E+00  0.83410038820E+03  0.83410038820E+03  0.00000000000E+00 0.  1.
         21   -1    0    0  502  503 -0.00000000000E+00 -0.00000000000E+00 -0.15917549678E+03  0.15917549678E+03  0.00000000000E+00 0. -1.
          6    1    1    2  501    0 -0.54581943987E+02 -0.31639431458E+03  0.32384667848E+03  0.48738611190E+03  0.17200000000E+03 0. -1.
         -6    1    1    2    0  503  0.54581943987E+02  0.31639431458E+03  0.35107821295E+03  0.50588977309E+03  0.17200000000E+03 0.  1.
</event>
<event>
 4    1  0.5701701E+000  0.1736230E+03  0.7818608E-02  0.1174121E+00
         21   -1    0    0  501  502  0.00000000000E+00  0.00000000000E+00  0.14485032560E+04  0.14485032560E+04  0.00000000000E+00 0. -1.
         21   -1    0    0  502  503 -0.00000000000E+00 -0.00000000000E+00 -0.11719141034E+03  0.11719141034E+03  0.00000000000E+00 0. -1.
          6    1    1    2  501    0 -0.20983616973E+02 -0.10983543321E+02  0.13755986909E+04  0.13865124265E+04  0.17200000000E+03 0. -1.
         -6    1    1    2    0  503  0.20983616973E+02  0.10983543321E+02 -0.44286845267E+02  0.17918223983E+03  0.17200000000E+03 0. -1.
</event>
<event>
 4    1  0.5701701E+000  0.1792699E+03  0.7818608E-02  0.1168511E+00
         21   -1    0    0  501  502  0.00000000000E+00  0.00000000000E+00  0.89342535273E+02  0.89342535273E+02  0.00000000000E+00 0.  1.
         21   -1    0    0  502  503 -0.00000000000E+00 -0.00000000000E+00 -0.56599836380E+03  0.56599836380E+03  0.00000000000E+00 0.  1.
          6    1    1    2  501    0  0.28878489992E+02 -0.41469709530E+02 -0.40510959190E+02  0.18379021140E+03  0.17200000000E+03 0.  1.
         -6    1    1    2    0  503 -0.28878489992E+02  0.41469709530E+02 -0.43614486933E+03  0.47155068767E+03  0.17200000000E+03 0.  1.
</event>
<event>
 4    1  0.5701701E+000  0.1895722E+03  0.7818608E-02  0.1158848E+00
         21   -1    0    0  503  502  0.00000000000E+00  0.00000000000E+00  0.17338966159E+03  0.17338966159E+03  0.00000000000E+00 0.  1.
         21   -1    0    0  501  503 -0.00000000000E+00 -0.00000000000E+00 -0.22860492149E+03  0.22860492149E+03  0.00000000000E+00 0.  1.
          6    1    1    2  501    0 -0.57251716139E+02 -0.55460538480E+02 -0.89018115041E+02  0.20943222086E+03  0.17200000000E+03 0.  1.
         -6    1    1    2    0  502  0.57251716139E+02  0.55460538480E+02  0.33802855139E+02  0.19256236222E+03  0.17200000000E+03 0.  1.
</event>
<event>
 4    1  0.5701701E+000  0.1865491E+03  0.7818608E-02  0.1161611E+00
         21   -1    0    0  503  502  0.00000000000E+00  0.00000000000E+00  0.67505185470E+03  0.67505185470E+03  0.00000000000E+00 0. -1.
         21   -1    0    0  501  503 -0.00000000000E+00 -0.00000000000E+00 -0.75346643677E+02  0.75346643677E+02  0.00000000000E+00 0. -1.
          6    1    1    2  501    0 -0.23617912643E+02 -0.68255043581E+02  0.89006407417E+02  0.20669469595E+03  0.17200000000E+03 0. -1.
         -6    1    1    2    0  502  0.23617912643E+02  0.68255043581E+02  0.51069880361E+03  0.54370380243E+03  0.17200000000E+03 0. -1.
</event>
<event>
 4    1  0.5701701E+000  0.1884540E+03  0.7818608E-02  0.1159863E+00
         21   -1    0    0  501  502  0.00000000000E+00  0.00000000000E+00  0.50235042756E+02  0.50235042756E+02  0.00000000000E+00 0.  1.
         21   -1    0    0  502  503 -0.00000000000E+00 -0.00000000000E+00 -0.14661461185E+04  0.14661461185E+04  0.00000000000E+00 0. -1.
          6    1    1    2  501    0  0.67136351923E+02 -0.37731073852E+02 -0.16237411845E+03  0.24875746828E+03  0.17200000000E+03 0.  1.
         -6    1    1    2    0  503 -0.67136351923E+02  0.37731073852E+02 -0.12535369573E+04  0.12676236929E+04  0.17200000000E+03 0. -1.
</event>
<event>
 4    1  0.5701701E+000  0.1737004E+03  0.7818608E-02  0.1174043E+00
         21   -1    0    0  503  502  0.00000000000E+00  0.00000000000E+00  0.46408875083E+03  0.46408875083E+03  0.00000000000E+00 0.  1.
         21   -1    0    0  501  503 -0.00000000000E+00 -0.00000000000E+00 -0.88076599109E+02  0.88076599109E+02  0.00000000000E+00 0.  1.
          6    1    1    2  501    0  0.22804999690E+02 -0.82324468027E+01  0.46729021890E+02  0.17987618708E+03  0.17200000000E+03 0.  1.
         -6    1    1    2    0  502 -0.22804999690E+02  0.82324468027E+01  0.32928312983E+03  0.37228916286E+03  0.17200000000E+03 0.  1.
</event>
<event>
 4    1  0.5701701E+000  0.2172078E+03  0.7818608E-02  0.1135982E+00
         21   -1    0    0  501  502  0.00000000000E+00  0.00000000000E+00  0.10041818662E+04  0.10041818662E+04  0.00000000000E+00 0. -1.
         21   -1    0    0  502  503 -0.00000000000E+00 -0.00000000000E+00 -0.51522785458E+02  0.51522785458E+02  0.00000000000E+00 0. -1.
          6    1    1    2  501    0  0.13003850438E+03  0.26176214383E+02  0.63302026457E+03  0.66924872968E+03  0.17200000000E+03 0. -1.
         -6    1    1    2    0  503 -0.13003850438E+03 -0.26176214383E+02  0.31963881613E+03  0.38645592194E+03  0.17200000000E+03 0. -1.
</event>
<event>
 4    1  0.5701701E+000  0.1877497E+03  0.7818608E-02  0.1160507E+00
         21   -1    0    0  503  502  0.00000000000E+00  0.00000000000E+00  0.80984232727E+03  0.80984232727E+03  0.00000000000E+00 0.  1.
         21   -1    0    0  501  503 -0.00000000000E+00 -0.00000000000E+00 -0.90554427829E+02  0.90554427829E+02  0.00000000000E+00 0.  1.
          6    1    1    2  501    0  0.67466522680E+02 -0.33379819800E+02  0.35210927857E+02  0.19102291353E+03  0.17200000000E+03 0.  1.
         -6    1    1    2    0  502 -0.67466522680E+02  0.33379819800E+02  0.68407697159E+03  0.70937384157E+03  0.17200000000E+03 0.  1.
</event>
<event>
 4    1  0.5701701E+000  0.1911754E+03  0.7818608E-02  0.1157405E+00
         21   -1    0    0  501  502  0.00000000000E+00  0.00000000000E+00  0.12921486571E+04  0.12921486571E+04  0.00000000000E+00 0. -1.
         21   -1    0    0  502  503 -0.00000000000E+00 -0.00000000000E+00 -0.51017333977E+02  0.51017333977E+02  0.00000000000E+00 0. -1.
          6    1    1    2  501    0  0.82162002621E+02  0.14609794023E+02  0.10688624877E+04  0.10858245984E+04  0.17200000000E+03 0. -1.
         -6    1    1    2    0  503 -0.82162002621E+02 -0.14609794023E+02  0.17226883543E+03  0.25734139274E+03  0.17200000000E+03 0. -1.
</event>
<event>
 4    1  0.5701701E+000  0.4197881E+03  0.7818608E-02  0.1037135E+00
         21   -1    0    0  503  502  0.00000000000E+00  0.00000000000E+00  0.29639597261E+04  0.29639597261E+04  0.00000000000E+00 0.  1.
         21   -1    0    0  501  503 -0.00000000000E+00 -0.00000000000E+00 -0.62434987332E+02  0.62434987332E+02  0.00000000000E+00 0. -1.
          6    1    1    2  501    0 -0.90625168513E+02  0.37205531681E+03  0.11201703631E+04  0.11962456781E+04  0.17200000000E+03 0. -1.
         -6    1    1    2    0  502  0.90625168513E+02 -0.37205531681E+03  0.17813543756E+04  0.18301490353E+04  0.17200000000E+03 0.  1.
</event>
<event>
 4    1  0.5701701E+000  0.2030847E+03  0.7818608E-02  0.1147162E+00
         21   -1    0    0  501  502  0.00000000000E+00  0.00000000000E+00  0.64537212904E+03  0.64537212904E+03  0.00000000000E+00 0. -1.
         21   -1    0    0  502  503 -0.00000000000E+00 -0.00000000000E+00 -0.69353168443E+02  0.69353168443E+02  0.00000000000E+00 0. -1.
          6    1    1    2  501    0  0.84079611380E+02  0.67749729385E+02  0.38815825001E+03  0.43807560299E+03  0.17200000000E+03 0. -1.
         -6    1    1    2    0  503 -0.84079611380E+02 -0.67749729385E+02  0.18786071058E+03  0.27664969449E+03  0.17200000000E+03 0. -1.
</event>
<event>
 4    1  0.5701701E+000  0.1834311E+03  0.7818608E-02  0.1164523E+00
         21   -1    0    0  501  502  0.00000000000E+00  0.00000000000E+00  0.18714913223E+02  0.18714913223E+02  0.00000000000E+00 0. -1.
         21   -1    0    0  502  503 -0.00000000000E+00 -0.00000000000E+00 -0.18354047092E+04  0.18354047092E+04  0.00000000000E+00 0.  1.
          6    1    1    2  501    0 -0.62888182617E+02 -0.10395057855E+02 -0.77577086964E+03  0.79716210580E+03  0.17200000000E+03 0.  1.
         -6    1    1    2    0  503  0.62888182617E+02  0.10395057855E+02 -0.10409189263E+04  0.10569575166E+04  0.17200000000E+03 0.  1.
</event>
<event>
 4    1  0.5701701E+000  0.1751472E+03  0.7818608E-02  0.1172584E+00
         21   -1    0    0  503  502  0.00000000000E+00  0.00000000000E+00  0.35184064532E+02  0.35184064532E+02  0.00000000000E+00 0.  1.
         21   -1    0    0  501  503 -0.00000000000E+00 -0.00000000000E+00 -0.11250468267E+04  0.11250468267E+04  0.00000000000E+00 0.  1.
          6    1    1    2  501    0  0.16561680609E+02  0.28604991817E+02 -0.82011740243E+03  0.83861140499E+03  0.17200000000E+03 0. -1.
         -6    1    1    2    0  502 -0.16561680609E+02 -0.28604991817E+02 -0.26974535969E+03  0.32161948619E+03  0.17200000000E+03 0. -1.
</event>
<event>
 4    1  0.5701701E+000  0.1740450E+03  0.7818608E-02  0.1173694E+00
         21   -1    0    0  501  502  0.00000000000E+00  0.00000000000E+00  0.13595488632E+03  0.13595488632E+03  0.00000000000E+00 0.  1.
         21   -1    0    0  502  503 -0.00000000000E+00 -0.00000000000E+00 -0.40848268144E+03  0.40848268144E+03  0.00000000000E+00 0.  1.
          6    1    1    2  501    0  0.55709670471E+01  0.26011925496E+02  0.47266988198E+02  0.18034917276E+03  0.17200000000E+03 0.  1.
         -6    1    1    2    0  503 -0.55709670471E+01 -0.26011925496E+02 -0.31979478332E+03  0.36408839501E+03  0.17200000000E+03 0.  1.
</event>
<event>
 4    1  0.5701701E+000  0.1800503E+03  0.7818608E-02  0.1167754E+00
         21   -1    0    0  503  502  0.00000000000E+00  0.00000000000E+00  0.16671135405E+03  0.16671135405E+03  0.00000000000E+00 0.  1.
         21   -1    0    0  501  503 -0.00000000000E+00 -0.00000000000E+00 -0.41034876378E+03  0.41034876378E+03  0.00000000000E+00 0.  1.
          6    1    1    2  501    0  0.40423946107E+01 -0.53082526071E+02 -0.33110129689E+03  0.37689012236E+03  0.17200000000E+03 0.  1.
         -6    1    1    2    0  502 -0.40423946107E+01  0.53082526071E+02  0.87463887164E+02  0.20016999547E+03  0.17200000000E+03 0.  1.
</event>
<event>
 4    1  0.5701701E+000  0.1997315E+03  0.7818608E-02  0.1149966E+00
         21   -1    0    0  503  502  0.00000000000E+00  0.00000000000E+00  0.68322048903E+03  0.68322048903E+03  0.00000000000E+00 0.  1.
         21   -1    0    0  501  503 -0.00000000000E+00 -0.00000000000E+00 -0.74325045663E+02  0.74325045663E+02  0.00000000000E+00 0.  1.
          6    1    1    2  501    0  0.36332319920E+02 -0.94808459463E+02  0.12906006015E+03  0.23780071611E+03  0.17200000000E+03 0.  1.
         -6    1    1    2    0  502 -0.36332319920E+02  0.94808459463E+02  0.47983538322E+03  0.51974481859E+03  0.17200000000E+03 0.  1.
</event>
<event>
 4    1  0.5701701E+000  0.2236576E+03  0.7818608E-02  0.1131185E+00
         21   -1    0    0  503  502  0.00000000000E+00  0.00000000000E+00  0.26051321946E+03  0.26051321946E+03  0.00000000000E+00 0. -1.
         21   -1    0    0  501  503 -0.00000000000E+00 -0.00000000000E+00 -0.26704636131E+03  0.26704636131E+03  0.00000000000E+00 0. -1.
          6    1    1    2  501    0 -0.12965006402E+03 -0.60245932239E+02 -0.14308571804E+03  0.26551126936E+03  0.17200000000E+03 0. -1.
         -6    1    1    2    0  502  0.12965006402E+03  0.60245932239E+02  0.13655257618E+03  0.26204831141E+03  0.17200000000E+03 0. -1.
</event>
<event>
 4    1  0.5701701E+000  0.1773056E+03  0.7818608E-02  0.1170437E+00
         21   -1    0    0  503  502  0.00000000000E+00  0.00000000000E+00  0.18214402803E+03  0.18214402803E+03  0.00000000000E+00 0.  1.
         21   -1    0    0  501  503 -0.00000000000E+00 -0.00000000000E+00 -0.17944635209E+03  0.17944635209E+03  0.00000000000E+00 0.  1.
          6    1    1    2  501    0 -0.39947547187E+02 -0.16045353798E+02 -0.33976661855E+02  0.18053164115E+03  0.17200000000E+03 0.  1.
         -6    1    1    2    0  502  0.39947547187E+02  0.16045353798E+02  0.36674337791E+02  0.18105873897E+03  0.17200000000E+03 0.  1.
</event>
<event>
 4    1  0.5701701E+000  0.1825034E+03  0.7818608E-02  0.1165402E+00
         21   -1    0    0  503  502  0.00000000000E+00  0.00000000000E+00  0.15129870886E+03  0.15129870886E+03  0.00000000000E+00 0.  1.
         21   -1    0    0  501  503 -0.00000000000E+00 -0.00000000000E+00 -0.30646544908E+03  0.30646544908E+03  0.00000000000E+00 0.  1.
          6    1    1    2  501    0 -0.47690947196E+02 -0.38066463909E+02 -0.19905664431E+03  0.27005745641E+03  0.17200000000E+03 0.  1.
         -6    1    1    2    0  502  0.47690947196E+02  0.38066463909E+02  0.43889904091E+02  0.18770670153E+03  0.17200000000E+03 0.  1.
</event>
<event>
 4    1  0.5701701E+000  0.1850590E+03  0.7818608E-02  0.1162995E+00
         21   -1    0    0  503  502  0.00000000000E+00  0.00000000000E+00  0.62375981632E+02  0.62375981632E+02  0.00000000000E+00 0. -1.
         21   -1    0    0  501  503 -0.00000000000E+00 -0.00000000000E+00 -0.93462346911E+03  0.93462346911E+03  0.00000000000E+00 0. -1.
          6    1    1    2  501    0 -0.25260615271E+02 -0.63440663711E+02 -0.75631290036E+03  0.77862444076E+03  0.17200000000E+03 0. -1.
         -6    1    1    2    0  502  0.25260615271E+02  0.63440663711E+02 -0.11593458712E+03  0.21837500999E+03  0.17200000000E+03 0. -1.
</event>
<event>
 4    1  0.5701701E+000  0.1767412E+03  0.7818608E-02  0.1170995E+00
         21   -1    0    0  501  502  0.00000000000E+00  0.00000000000E+00  0.34350796489E+03  0.34350796489E+03  0.00000000000E+00 0.  1.
         21   -1    0    0  502  503 -0.00000000000E+00 -0.00000000000E+00 -0.22200630851E+03  0.22200630851E+03  0.00000000000E+00 0.  1.
          6    1    1    2  501    0 -0.25297336383E+02  0.31835486846E+02  0.27801196630E+03  0.32943604365E+03  0.17200000000E+03 0.  1.
         -6    1    1    2    0  503  0.25297336383E+02 -0.31835486846E+02 -0.15651030992E+03  0.23607822975E+03  0.17200000000E+03 0.  1.
</event>
<event>
 4    1  0.5701701E+000  0.2567381E+03  0.7818608E-02  0.1109119E+00
         21   -1    0    0  503  502  0.00000000000E+00  0.00000000000E+00  0.12353372410E+04  0.12353372410E+04  0.00000000000E+00 0.  1.
         21   -1    0    0  501  503 -0.00000000000E+00 -0.00000000000E+00 -0.53522414508E+02  0.53522414508E+02  0.00000000000E+00 0.  1.
          6    1    1    2  501    0  0.15026970223E+03 -0.11725817135E+03  0.62668284105E+03  0.67723396653E+03  0.17200000000E+03 0.  1.
         -6    1    1    2    0  502 -0.15026970223E+03  0.11725817135E+03  0.55513198545E+03  0.61162568899E+03  0.17200000000E+03 0.  1.
</event>
<event>
 4    1  0.5701701E+000  0.1833635E+03  0.7818608E-02  0.1164587E+00
         21   -1    0    0  503  502  0.00000000000E+00  0.00000000000E+00  0.59773734931E+02  0.59773734931E+02  0.00000000000E+00 0. -1.
         21   -1    0    0  501  503 -0.00000000000E+00 -0.00000000000E+00 -0.69830873372E+03  0.69830873372E+03  0.00000000000E+00 0. -1.
          6    1    1    2  501    0  0.20498205068E+02 -0.60149896004E+02 -0.48643082461E+03  0.51984337404E+03  0.17200000000E+03 0. -1.
         -6    1    1    2    0  502 -0.20498205068E+02  0.60149896004E+02 -0.15210417418E+03  0.23823909462E+03  0.17200000000E+03 0. -1.
</event>
<event>
 4    1  0.5701701E+000  0.1852249E+03  0.7818608E-02  0.1162840E+00
         21   -1    0    0  503  502  0.00000000000E+00  0.00000000000E+00  0.89390231008E+02  0.89390231008E+02  0.00000000000E+00 0. -1.
         21   -1    0    0  501  503 -0.00000000000E+00 -0.00000000000E+00 -0.47241760973E+03  0.47241760973E+03  0.00000000000E+00 0. -1.
          6    1    1    2  501    0  0.43091411444E+02 -0.53548172221E+02 -0.31317329201E+03  0.36384857745E+03  0.17200000000E+03 0. -1.
         -6    1    1    2    0  502 -0.43091411444E+02  0.53548172221E+02 -0.69854086711E+02  0.19795926328E+03  0.17200000000E+03 0. -1.
</event>
<event>
 4    1  0.5701701E+000  0.2220887E+03  0.7818608E-02  0.1132335E+00
         21   -1    0    0  501  502  0.00000000000E+00  0.00000000000E+00  0.34398301956E+03  0.34398301956E+03  0.00000000000E+00 0.  1.
         21   -1    0    0  502  503 -0.00000000000E+00 -0.00000000000E+00 -0.14463066379E+03  0.14463066379E+03  0.00000000000E+00 0.  1.
          6    1    1    2  501    0  0.11593649874E+03 -0.79360701899E+02  0.77040079525E+02  0.23507140745E+03  0.17200000000E+03 0.  1.
         -6    1    1    2    0  503 -0.11593649874E+03  0.79360701899E+02  0.12231227625E+03  0.25354227590E+03  0.17200000000E+03 0.  1.
</event>
<event>
 4    1  0.5701701E+000  0.2856300E+03  0.7818608E-02  0.1092653E+00
         21   -1    0    0  501  502  0.00000000000E+00  0.00000000000E+00  0.87700675657E+03  0.87700675657E+03  0.00000000000E+00 0. -1.
         21   -1    0    0  502  503 -0.00000000000E+00 -0.00000000000E+00 -0.13358764367E+03  0.13358764367E+03  0.00000000000E+00 0.  1.
          6    1    1    2  501    0  0.39353214853E+02 -0.22461483953E+03  0.65014279936E+03  0.71011982173E+03  0.17200000000E+03 0. -1.
         -6    1    1    2    0  503 -0.39353214853E+02  0.22461483953E+03  0.93276313538E+02  0.30047457850E+03  0.17200000000E+03 0.  1.
</event>
<event>
 4    1  0.5701701E+000  0.1824421E+03  0.7818608E-02  0.1165460E+00
         21   -1    0    0  501  502  0.00000000000E+00  0.00000000000E+00  0.62149377408E+03  0.62149377408E+03  0.00000000000E+00 0.  1.
         21   -1    0    0  502  503 -0.00000000000E+00 -0.00000000000E+00 -0.57978024773E+02  0.57978024773E+02  0.00000000000E+00 0.  1.
          6    1    1    2  501    0 -0.53074826626E+01 -0.60604779622E+02  0.37557662630E+03  0.41754390297E+03  0.17200000000E+03 0.  1.
         -6    1    1    2    0  503  0.53074826626E+01  0.60604779622E+02  0.18793912301E+03  0.26192789589E+03  0.17200000000E+03 0.  1.
</event>
<event>
 4    1  0.5701701E+000  0.2045607E+03  0.7818608E-02  0.1145947E+00
         21   -1    0    0  503  502  0.00000000000E+00  0.00000000000E+00  0.10701975647E+03  0.10701975647E+03  0.00000000000E+00 0.  1.
         21   -1    0    0  501  503 -0.00000000000E+00 -0.00000000000E+00 -0.53213135787E+03  0.53213135787E+03  0.00000000000E+00 0. -1.
          6    1    1    2  501    0 -0.11024407095E+03  0.10358787035E+02 -0.47978068250E+02  0.21011176712E+03  0.17200000000E+03 0.  1.
         -6    1    1    2    0  502  0.11024407095E+03 -0.10358787035E+02 -0.37713353314E+03  0.42903934723E+03  0.17200000000E+03 0. -1.
</event>
<event>
 4    1  0.5701701E+000  0.1738043E+03  0.7818608E-02  0.1173938E+00
         21   -1    0    0  501  502  0.00000000000E+00  0.00000000000E+00  0.43721548947E+02  0.43721548947E+02  0.00000000000E+00 0. -1.
         21   -1    0    0  502  503 -0.00000000000E+00 -0.00000000000E+00 -0.83153030457E+03  0.83153030457E+03  0.00000000000E+00 0. -1.
          6    1    1    2  501    0 -0.23414604282E+02  0.86994431869E+01 -0.21394332212E+03  0.27564409859E+03  0.17200000000E+03 0. -1.
         -6    1    1    2    0  503  0.23414604282E+02 -0.86994431869E+01 -0.57386543350E+03  0.59960775492E+03  0.17200000000E+03 0. -1.
</event>
<event>
 4    1  0.5701701E+000  0.2132537E+03  0.7818608E-02  0.1139015E+00
         21   -1    0    0  501  502  0.00000000000E+00  0.00000000000E+00  0.47369712942E+02  0.47369712942E+02  0.00000000000E+00 0.  1.
         21   -1    0    0  502  503 -0.00000000000E+00 -0.00000000000E+00 -0.99595509362E+03  0.99595509362E+03  0.00000000000E+00 0.  1.
          6    1    1    2  501    0 -0.71673154971E+02  0.10371171126E+03 -0.37524037439E+03  0.43160456296E+03  0.17200000000E+03 0.  1.
         -6    1    1    2    0  503  0.71673154971E+02 -0.10371171126E+03 -0.57334500629E+03  0.61172024360E+03  0.17200000000E+03 0.  1.
</event>
<event>
 4    1  0.5701701E+000  0.2027378E+03  0.7818608E-02  0.1147450E+00
         21   -1    0    0  501  502  0.00000000000E+00  0.00000000000E+00  0.12184769747E+03  0.12184769747E+03  0.00000000000E+00 0. -1.
         21   -1    0    0  502  503 -0.00000000000E+00 -0.00000000000E+00 -0.33918921012E+03  0.33918921012E+03  0.00000000000E+00 0.  1.
          6    1    1    2  501    0  0.22807961236E+02 -0.10487323235E+03 -0.12574819463E+03  0.23856908101E+03  0.17200000000E+03 0.  1.
         -6    1    1    2    0  503 -0.22807961236E+02  0.10487323235E+03 -0.91593318021E+02  0.22246782658E+03  0.17200000000E+03 0.  1.
</event>
<event>
 4    1  0.5701701E+000  0.4396510E+03  0.7818608E-02  0.1030854E+00
         21   -1    0    0  501  502  0.00000000000E+00  0.00000000000E+00  0.15648887451E+04  0.15648887451E+04  0.00000000000E+00 0.  1.
         21   -1    0    0  502  503 -0.00000000000E+00 -0.00000000000E+00 -0.13696471162E+03  0.13696471162E+03  0.00000000000E+00 0. -1.
          6    1    1    2  501    0 -0.36203715172E+03  0.18066016967E+03  0.98057717945E+03  0.10746276569E+04  0.17200000000E+03 0.  1.
         -6    1    1    2    0  503  0.36203715172E+03 -0.18066016967E+03  0.44734685400E+03  0.62722579978E+03  0.17200000000E+03 0. -1.
</event>
<event>
 4    1  0.5701701E+000  0.1910635E+03  0.7818608E-02  0.1157506E+00
         21   -1    0    0  501  502  0.00000000000E+00  0.00000000000E+00  0.13219479661E+03  0.13219479661E+03  0.00000000000E+00 0.  1.
         21   -1    0    0  502  503 -0.00000000000E+00 -0.00000000000E+00 -0.51316687992E+03  0.51316687992E+03  0.00000000000E+00 0.  1.
          6    1    1    2  501    0  0.49512048866E+02 -0.66856743449E+02  0.28812510494E+02  0.19322377672E+03  0.17200000000E+03 0.  1.
         -6    1    1    2    0  503 -0.49512048866E+02  0.66856743449E+02 -0.40978459381E+03  0.45213789981E+03  0.17200000000E+03 0.  1.
</event>
<event>
 4    1  0.5701701E+000  0.1794800E+03  0.7818608E-02  0.1168307E+00
         21   -1    0    0  501  502  0.00000000000E+00  0.00000000000E+00  0.14955906063E+03  0.14955906063E+03  0.00000000000E+00 0.  1.
         21   -1    0    0  502  503 -0.00000000000E+00 -0.00000000000E+00 -0.49416048159E+03  0.49416048159E+03  0.00000000000E+00 0.  1.
          6    1    1    2  501    0 -0.26020310970E+02 -0.44181727056E+02  0.69444790274E+02  0.19244651331E+03  0.17200000000E+03 0.  1.
         -6    1    1    2    0  503  0.26020310970E+02  0.44181727056E+02 -0.41404621123E+03  0.45127302891E+03  0.17200000000E+03 0.  1.
</event>
<event>
 4    1  0.5701701E+000  0.2359112E+03  0.7818608E-02  0.1122547E+00
         21   -1    0    0  503  502  0.00000000000E+00  0.00000000000E+00  0.13430621506E+03  0.13430621506E+03  0.00000000000E+00 0.  1.
         21   -1    0    0  501  503 -0.00000000000E+00 -0.00000000000E+00 -0.65458599257E+03  0.65458599257E+03  0.00000000000E+00 0. -1.
          6    1    1    2  501    0  0.58202986693E+02 -0.15060717746E+03 -0.49908283551E+03  0.55203060265E+03  0.17200000000E+03 0. -1.
         -6    1    1    2    0  502 -0.58202986693E+02  0.15060717746E+03 -0.21196942008E+02  0.23686160498E+03  0.17200000000E+03 0.  1.
</event>
<event>
 4    1  0.5701701E+000  0.2049534E+03  0.7818608E-02  0.1145626E+00
         21   -1    0    0  503  502  0.00000000000E+00  0.00000000000E+00  0.58700267437E+02  0.58700267437E+02  0.00000000000E+00 0. -1.
         21   -1    0    0  501  503 -0.00000000000E+00 -0.00000000000E+00 -0.71563322394E+03  0.71563322394E+03  0.00000000000E+00 0. -1.
          6    1    1    2  501    0 -0.82999901727E+02  0.74383436082E+02 -0.33112614029E+03  0.38942316319E+03  0.17200000000E+03 0. -1.
         -6    1    1    2    0  502  0.82999901727E+02 -0.74383436082E+02 -0.32580681622E+03  0.38491032818E+03  0.17200000000E+03 0. -1.
</event>
<event>
 4    1  0.5701701E+000  0.1817321E+03  0.7818608E-02  0.1166137E+00
         21   -1    0    0  503  502  0.00000000000E+00  0.00000000000E+00  0.36007212010E+03  0.36007212010E+03  0.00000000000E+00 0. -1.
         21   -1    0    0  501  503 -0.00000000000E+00 -0.00000000000E+00 -0.11778233708E+03  0.11778233708E+03  0.00000000000E+00 0. -1.
          6    1    1    2  501    0  0.95824958885E+01  0.57885535122E+02  0.87581676371E+01  0.18194302653E+03  0.17200000000E+03 0. -1.
         -6    1    1    2    0  502 -0.95824958885E+01 -0.57885535122E+02  0.23353161539E+03  0.29591143065E+03  0.17200000000E+03 0. -1.
</event>
<event>
 4    1  0.5701701E+000  0.1757979E+03  0.7818608E-02  0.1171933E+00
         21   -1    0    0  501  502  0.00000000000E+00  0.00000000000E+00  0.70171837539E+03  0.70171837539E+03  0.00000000000E+00 0. -1.
         21   -1    0    0  502  503 -0.00000000000E+00 -0.00000000000E+00 -0.49179305100E+02  0.49179305100E+02  0.00000000000E+00 0. -1.
          6    1    1    2  501    0 -0.35890500106E+02 -0.57234471442E+01  0.44761931391E+03  0.48090325018E+03  0.17200000000E+03 0. -1.
         -6    1    1    2    0  503  0.35890500106E+02  0.57234471442E+01  0.20491975638E+03  0.26999443031E+03  0.17200000000E+03 0. -1.
</event>
<event>
 4    1  0.5701701E+000  0.2285829E+03  0.7818608E-02  0.1127641E+00
         21   -1    0    0  501  502  0.00000000000E+00  0.00000000000E+00  0.91089618005E+02  0.91089618005E+02  0.00000000000E+00 0.  1.
         21   -1    0    0  502  503 -0.00000000000E+00 -0.00000000000E+00 -0.63960053632E+03  0.63960053632E+03  0.00000000000E+00 0.  1.
          6    1    1    2  501    0 -0.38996785133E+01 -0.15050229337E+03 -0.15690594457E+03  0.27725371637E+03  0.17200000000E+03 0.  1.
         -6    1    1    2    0  503  0.38996785133E+01  0.15050229337E+03 -0.39160497374E+03  0.45343643795E+03  0.17200000000E+03 0.  1.
</event>
<event>
 4    1  0.5701701E+000  0.1994465E+03  0.7818608E-02  0.1150207E+00
         21   -1    0    0  503  502  0.00000000000E+00  0.00000000000E+00  0.32793329644E+03  0.32793329644E+03  0.00000000000E+00 0. -1.
         21   -1    0    0  501  503 -0.00000000000E+00 -0.00000000000E+00 -0.15619782651E+03  0.15619782651E+03  0.00000000000E+00 0. -1.
          6    1    1    2  501    0 -0.39993214841E+02  0.92711660308E+02 -0.28547356514E+02  0.20147918194E+03  0.17200000000E+03 0. -1.
         -6    1    1    2    0  502  0.39993214841E+02 -0.92711660308E+02  0.20028282644E+03  0.28265194101E+03  0.17200000000E+03 0. -1.
</event>
<event>
 4    1  0.5701701E+000  0.2098191E+03  0.7818608E-02  0.1141709E+00
         21   -1    0    0  503  502  0.00000000000E+00  0.00000000000E+00  0.14382234841E+03  0.14382234841E+03  0.00000000000E+00 0. -1.
         21   -1    0    0  501  503 -0.00000000000E+00 -0.00000000000E+00 -0.39209821095E+03  0.39209821095E+03  0.00000000000E+00 0. -1.
          6    1    1    2  501    0  0.71590667921E+02 -0.96513479851E+02 -0.24963013340E+03  0.32609703928E+03  0.17200000000E+03 0. -1.
         -6    1    1    2    0  502 -0.71590667921E+02  0.96513479851E+02  0.13542708694E+01  0.20982352007E+03  0.17200000000E+03 0. -1.
</event>
<event>
 4    1  0.5701701E+000  0.2098353E+03  0.7818608E-02  0.1141696E+00
         21   -1    0    0  503  502  0.00000000000E+00  0.00000000000E+00  0.26091699153E+03  0.26091699153E+03  0.00000000000E+00 0.  1.
         21   -1    0    0  501  503 -0.00000000000E+00 -0.00000000000E+00 -0.96827196965E+03  0.96827196965E+03  0.00000000000E+00 0.  1.
          6    1    1    2  501    0 -0.10472818632E+03 -0.58981884790E+02 -0.91215285050E+03  0.93597739204E+03  0.17200000000E+03 0.  1.
         -6    1    1    2    0  502  0.10472818632E+03  0.58981884790E+02  0.20479787238E+03  0.29321156914E+03  0.17200000000E+03 0.  1.
</event>
<event>
 4    1  0.5701701E+000  0.2013775E+03  0.7818608E-02  0.1148582E+00
         21   -1    0    0  503  502  0.00000000000E+00  0.00000000000E+00  0.24419876626E+03  0.24419876626E+03  0.00000000000E+00 0.  1.
         21   -1    0    0  501  503 -0.00000000000E+00 -0.00000000000E+00 -0.19657091480E+03  0.19657091480E+03  0.00000000000E+00 0.  1.
          6    1    1    2  501    0  0.10311618470E+03  0.18329412973E+02 -0.63004668690E+02  0.21100356206E+03  0.17200000000E+03 0.  1.
         -6    1    1    2    0  502 -0.10311618470E+03 -0.18329412973E+02  0.11063252014E+03  0.22976611900E+03  0.17200000000E+03 0.  1.
</event>
<event>
 4    1  0.5701701E+000  0.1807465E+03  0.7818608E-02  0.1167083E+00
         21   -1    0    0  501  502  0.00000000000E+00  0.00000000000E+00  0.32108615552E+02  0.32108615552E+02  0.00000000000E+00 0.  1.
         21   -1    0    0  502  503 -0.00000000000E+00 -0.00000000000E+00 -0.13737745670E+04  0.13737745670E+04  0.00000000000E+00 0.  1.
          6    1    1    2  501    0 -0.15671183824E+02  0.53289006324E+02 -0.31283800758E+03  0.36129893881E+03  0.17200000000E+03 0.  1.
         -6    1    1    2    0  503  0.15671183824E+02 -0.53289006324E+02 -0.10288279439E+04  0.10445842438E+04  0.17200000000E+03 0.  1.
</event>
<event>
 4    1  0.5701701E+000  0.2230499E+03  0.7818608E-02  0.1131629E+00
         21   -1    0    0  503  502  0.00000000000E+00  0.00000000000E+00  0.46800646845E+02  0.46800646845E+02  0.00000000000E+00 0. -1.
         21   -1    0    0  501  503 -0.00000000000E+00 -0.00000000000E+00 -0.11159054445E+04  0.11159054445E+04  0.00000000000E+00 0. -1.
          6    1    1    2  501    0  0.68411472176E+02  0.12444734546E+03 -0.66107987342E+03  0.69769468276E+03  0.17200000000E+03 0. -1.
         -6    1    1    2    0  502 -0.68411472176E+02 -0.12444734546E+03 -0.40802492426E+03  0.46501140861E+03  0.17200000000E+03 0. -1.
</event>
<event>
 4    1  0.5701701E+000  0.2043707E+03  0.7818608E-02  0.1146103E+00
         21   -1    0    0  503  502  0.00000000000E+00  0.00000000000E+00  0.10554403442E+04  0.10554403442E+04  0.00000000000E+00 0.  1.
         21   -1    0    0  501  503 -0.00000000000E+00 -0.00000000000E+00 -0.20875520350E+03  0.20875520350E+03  0.00000000000E+00 0.  1.
          6    1    1    2  501    0 -0.75865513083E+02 -0.80173595027E+02 -0.14569692250E+03  0.25098799701E+03  0.17200000000E+03 0.  1.
         -6    1    1    2    0  502  0.75865513083E+02  0.80173595027E+02  0.99238206325E+03  0.10132075507E+04  0.17200000000E+03 0.  1.
</event>
<event>
 4    1  0.5701701E+000  0.2047843E+03  0.7818608E-02  0.1145764E+00
         21   -1    0    0  503  502  0.00000000000E+00  0.00000000000E+00  0.81621885642E+02  0.81621885642E+02  0.00000000000E+00 0.  1.
         21   -1    0    0  501  503 -0.00000000000E+00 -0.00000000000E+00 -0.51474685351E+03  0.51474685351E+03  0.00000000000E+00 0. -1.
          6    1    1    2  501    0  0.10982342392E+03 -0.17070633078E+02 -0.20371311734E+03  0.28885225485E+03  0.17200000000E+03 0. -1.
         -6    1    1    2    0  502 -0.10982342392E+03  0.17070633078E+02 -0.22941185052E+03  0.30751648430E+03  0.17200000000E+03 0.  1.
</event>
<event>
 4    1  0.5701701E+000  0.2383656E+03  0.7818608E-02  0.1120886E+00
         21   -1    0    0  503  502  0.00000000000E+00  0.00000000000E+00  0.92226627961E+02  0.92226627961E+02  0.00000000000E+00 0.  1.
         21   -1    0    0  501  503 -0.00000000000E+00 -0.00000000000E+00 -0.11041709373E+04  0.11041709373E+04  0.00000000000E+00 0.  1.
          6    1    1    2  501    0  0.14588562666E+03  0.77146266209E+02 -0.90369605454E+03  0.93460404527E+03  0.17200000000E+03 0.  1.
         -6    1    1    2    0  502 -0.14588562666E+03 -0.77146266209E+02 -0.10824825485E+03  0.26179352004E+03  0.17200000000E+03 0.  1.
</event>
<event>
 4    1  0.5701701E+000  0.1751768E+03  0.7818608E-02  0.1172554E+00
         21   -1    0    0  501  502  0.00000000000E+00  0.00000000000E+00  0.84075180868E+02  0.84075180868E+02  0.00000000000E+00 0. -1.
         21   -1    0    0  502  503 -0.00000000000E+00 -0.00000000000E+00 -0.37316619665E+03  0.37316619665E+03  0.00000000000E+00 0. -1.
          6    1    1    2  501    0 -0.26855102941E+02  0.19537088330E+02 -0.11071199292E+03  0.20722943746E+03  0.17200000000E+03 0. -1.
         -6    1    1    2    0  503  0.26855102941E+02 -0.19537088330E+02 -0.17837902286E+03  0.25001194006E+03  0.17200000000E+03 0. -1.
</event>
<event>
 4    1  0.5701701E+000  0.1961173E+03  0.7818608E-02  0.1153057E+00
         21   -1    0    0  503  502  0.00000000000E+00  0.00000000000E+00  0.40283153400E+03  0.40283153400E+03  0.00000000000E+00 0.  1.
         21   -1    0    0  501  503 -0.00000000000E+00 -0.00000000000E+00 -0.10402097357E+03  0.10402097357E+03  0.00000000000E+00 0. -1.
          6    1    1    2  501    0 -0.34384270777E+02 -0.87725302934E+02  0.76783515350E+02  0.21061271348E+03  0.17200000000E+03 0. -1.
         -6    1    1    2    0  502  0.34384270777E+02  0.87725302934E+02  0.22202704508E+03  0.29623979408E+03  0.17200000000E+03 0. -1.
</event>
<event>
 4    1  0.5701701E+000  0.2070640E+03  0.7818608E-02  0.1143912E+00
         21   -1    0    0  501  502  0.00000000000E+00  0.00000000000E+00  0.12236457758E+04  0.12236457758E+04  0.00000000000E+00 0. -1.
         21   -1    0    0  502  503 -0.00000000000E+00 -0.00000000000E+00 -0.51736749114E+02  0.51736749114E+02  0.00000000000E+00 0. -1.
          6    1    1    2  501    0  0.44915896702E+02 -0.10617941257E+03  0.94822915824E+03  0.97057407856E+03  0.17200000000E+03 0. -1.
         -6    1    1    2    0  503 -0.44915896702E+02  0.10617941257E+03  0.22367986849E+03  0.30480844640E+03  0.17200000000E+03 0. -1.
</event>
<event>
 4    1  0.5701701E+000  0.2536370E+03  0.7818608E-02  0.1111028E+00
         21   -1    0    0  503  502  0.00000000000E+00  0.00000000000E+00  0.56653580519E+03  0.56653580519E+03  0.00000000000E+00 0.  1.
         21   -1    0    0  501  503 -0.00000000000E+00 -0.00000000000E+00 -0.44662939606E+03  0.44662939606E+03  0.00000000000E+00 0.  1.
          6    1    1    2  501    0 -0.14631072751E+03  0.11550286427E+03 -0.37751718244E+03  0.45480871109E+03  0.17200000000E+03 0.  1.
         -6    1    1    2    0  502  0.14631072751E+03 -0.11550286427E+03  0.49742359158E+03  0.55835649016E+03  0.17200000000E+03 0.  1.
</event>
<event>
 4    1  0.5701701E+000  0.1863141E+03  0.7818608E-02  0.1161828E+00
         21   -1    0    0  503  502  0.00000000000E+00  0.00000000000E+00  0.70086040720E+03  0.70086040720E+03  0.00000000000E+00 0. -1.
         21   -1    0    0  501  503 -0.00000000000E+00 -0.00000000000E+00 -0.56380115374E+02  0.56380115374E+02  0.00000000000E+00 0. -1.
          6    1    1    2  501    0 -0.24854694218E+02 -0.67165395926E+02  0.19025650531E+03  0.26629022522E+03  0.17200000000E+03 0. -1.
         -6    1    1    2    0  502  0.24854694218E+02  0.67165395926E+02  0.45422378651E+03  0.49095029735E+03  0.17200000000E+03 0. -1.
</event>
<event>
 4    1  0.5701701E+000  0.2028601E+03  0.7818608E-02  0.1147348E+00
         21   -1    0    0  503  502  0.00000000000E+00  0.00000000000E+00  0.15046159401E+03  0.15046159401E+03  0.00000000000E+00 0. -1.
         21   -1    0    0  501  503 -0.00000000000E+00 -0.00000000000E+00 -0.37148713428E+03  0.37148713428E+03  0.00000000000E+00 0.  1.
          6    1    1    2  501    0  0.27648825396E+02  0.10394116426E+03  0.23515401844E+02  0.20421850381E+03  0.17200000000E+03 0. -1.
         -6    1    1    2    0  502 -0.27648825396E+02 -0.10394116426E+03 -0.24454094211E+03  0.31773022447E+03  0.17200000000E+03 0. -1.
</event>
<event>
 4    1  0.5701701E+000  0.2921422E+03  0.7818608E-02  0.1089236E+00
         21   -1    0    0  501  502  0.00000000000E+00  0.00000000000E+00  0.20849153695E+03  0.20849153695E+03  0.00000000000E+00 0. -1.
         21   -1    0    0  502  503 -0.00000000000E+00 -0.00000000000E+00 -0.43690889959E+03  0.43690889959E+03  0.00000000000E+00 0.  1.
          6    1    1    2  501    0  0.21287624529E+03 -0.10220948877E+03 -0.33169600472E+02  0.29401921332E+03  0.17200000000E+03 0. -1.
         -6    1    1    2    0  503 -0.21287624529E+03  0.10220948877E+03 -0.19524776217E+03  0.35138122323E+03  0.17200000000E+03 0.  1.
</event>
<event>
 4    1  0.5701701E+000  0.1965129E+03  0.7818608E-02  0.1152715E+00
         21   -1    0    0  503  502  0.00000000000E+00  0.00000000000E+00  0.13515814781E+03  0.13515814781E+03  0.00000000000E+00 0.  1.
         21   -1    0    0  501  503 -0.00000000000E+00 -0.00000000000E+00 -0.30449931961E+03  0.30449931961E+03  0.00000000000E+00 0.  1.
          6    1    1    2  501    0 -0.90753490715E+02  0.28233650013E+02 -0.30077759671E+02  0.19880142529E+03  0.17200000000E+03 0.  1.
         -6    1    1    2    0  502  0.90753490715E+02 -0.28233650013E+02 -0.13926341213E+03  0.24085604213E+03  0.17200000000E+03 0.  1.
</event>
<event>
 4    1  0.5701701E+000  0.2037002E+03  0.7818608E-02  0.1146654E+00
         21   -1    0    0  503  502  0.00000000000E+00  0.00000000000E+00  0.51141768240E+02  0.51141768240E+02  0.00000000000E+00 0.  1.
         21   -1    0    0  501  503 -0.00000000000E+00 -0.00000000000E+00 -0.82928316783E+03  0.82928316783E+03  0.00000000000E+00 0.  1.
          6    1    1    2  501    0 -0.75187130903E+02  0.79099216968E+02 -0.32433273486E+03  0.38299544864E+03  0.17200000000E+03 0.  1.
         -6    1    1    2    0  502  0.75187130903E+02 -0.79099216968E+02 -0.45380866473E+03  0.49742948743E+03  0.17200000000E+03 0.  1.
</event>
<event>
 4    1  0.5701701E+000  0.1996397E+03  0.7818608E-02  0.1150043E+00
         21   -1    0    0  503  502  0.00000000000E+00  0.00000000000E+00  0.38370014936E+03  0.38370014936E+03  0.00000000000E+00 0.  1.
         21   -1    0    0  501  503 -0.00000000000E+00 -0.00000000000E+00 -0.13363262824E+03  0.13363262824E+03  0.00000000000E+00 0.  1.
          6    1    1    2  501    0 -0.59823156738E+02  0.81811882122E+02  0.29664895579E+01  0.19966169938E+03  0.17200000000E+03 0.  1.
         -6    1    1    2    0  502  0.59823156738E+02 -0.81811882122E+02  0.24710103156E+03  0.31767107822E+03  0.17200000000E+03 0.  1.
</event>
<event>
 4    1  0.5701701E+000  0.1750682E+03  0.7818608E-02  0.1172663E+00
         21   -1    0    0  503  502  0.00000000000E+00  0.00000000000E+00  0.83557918682E+03  0.83557918682E+03  0.00000000000E+00 0.  1.
         21   -1    0    0  501  503 -0.00000000000E+00 -0.00000000000E+00 -0.64151363396E+02  0.64151363396E+02  0.00000000000E+00 0.  1.
          6    1    1    2  501    0  0.18249025173E+02 -0.27052533306E+02  0.91325088339E+02  0.19745667433E+03  0.17200000000E+03 0.  1.
         -6    1    1    2    0  502 -0.18249025173E+02  0.27052533306E+02  0.68010273508E+03  0.70227387588E+03  0.17200000000E+03 0.  1.
</event>
<event>
 4    1  0.5701701E+000  0.1925700E+03  0.7818608E-02  0.1156164E+00
         21   -1    0    0  503  502  0.00000000000E+00  0.00000000000E+00  0.33680956697E+02  0.33680956697E+02  0.00000000000E+00 0.  1.
         21   -1    0    0  501  503 -0.00000000000E+00 -0.00000000000E+00 -0.11042445469E+04  0.11042445469E+04  0.00000000000E+00 0. -1.
          6    1    1    2  501    0 -0.77338361556E+02 -0.38961507316E+02 -0.50450973530E+03  0.54001230934E+03  0.17200000000E+03 0.  1.
         -6    1    1    2    0  502  0.77338361556E+02  0.38961507316E+02 -0.56605385487E+03  0.59791319423E+03  0.17200000000E+03 0. -1.
</event>
<event>
 4    1  0.5701701E+000  0.1770261E+03  0.7818608E-02  0.1170713E+00
         21   -1    0    0  501  502  0.00000000000E+00  0.00000000000E+00  0.23850712093E+03  0.23850712093E+03  0.00000000000E+00 0. -1.
         21   -1    0    0  502  503 -0.00000000000E+00 -0.00000000000E+00 -0.51919093067E+03  0.51919093067E+03  0.00000000000E+00 0. -1.
          6    1    1    2  501    0 -0.10982252786E+02  0.40418001186E+02  0.18707811629E+03  0.25755862690E+03  0.17200000000E+03 0. -1.
         -6    1    1    2    0  503  0.10982252786E+02 -0.40418001186E+02 -0.46776192603E+03  0.50013942470E+03  0.17200000000E+03 0. -1.
</event>
<event>
 4    1  0.5701701E+000  0.1840885E+03  0.7818608E-02  0.1163904E+00
         21   -1    0    0  501  502  0.00000000000E+00  0.00000000000E+00  0.33059629831E+03  0.33059629831E+03  0.00000000000E+00 0. -1.
         21   -1    0    0  502  503 -0.00000000000E+00 -0.00000000000E+00 -0.18112898864E+03  0.18112898864E+03  0.00000000000E+00 0. -1.
          6    1    1    2  501    0 -0.42825311752E+02  0.49704922022E+02  0.24330495836E+03  0.30509980230E+03  0.17200000000E+03 0. -1.
         -6    1    1    2    0  503  0.42825311752E+02 -0.49704922022E+02 -0.93837648690E+02  0.20662548466E+03  0.17200000000E+03 0. -1.
</event>
<event>
 4    1  0.5701701E+000  0.2169171E+03  0.7818608E-02  0.1136203E+00
         21   -1    0    0  501  502  0.00000000000E+00  0.00000000000E+00  0.82688367075E+03  0.82688367075E+03  0.00000000000E+00 0. -1.
         21   -1    0    0  502  503 -0.00000000000E+00 -0.00000000000E+00 -0.10393250571E+03  0.10393250571E+03  0.00000000000E+00 0. -1.
          6    1    1    2  501    0 -0.13088623037E+03 -0.18380475128E+02  0.67454344590E+03  0.70856326998E+03  0.17200000000E+03 0. -1.
         -6    1    1    2    0  503  0.13088623037E+03  0.18380475128E+02  0.48407719139E+02  0.22225290648E+03  0.17200000000E+03 0. -1.
</event>
<event>
 4    1  0.5701701E+000  0.1983962E+03  0.7818608E-02  0.1151099E+00
         21   -1    0    0  501  502  0.00000000000E+00  0.00000000000E+00  0.28743090819E+03  0.28743090819E+03  0.00000000000E+00 0.  1.
         21   -1    0    0  502  503 -0.00000000000E+00 -0.00000000000E+00 -0.14252013889E+03  0.14252013889E+03  0.00000000000E+00 0.  1.
          6    1    1    2  501    0  0.64141849808E+02 -0.75252135350E+02  0.11498941584E+03  0.22931120018E+03  0.17200000000E+03 0. -1.
         -6    1    1    2    0  503 -0.64141849808E+02  0.75252135350E+02  0.29921353447E+02  0.20063984690E+03  0.17200000000E+03 0. -1.
</event>
<event>
 4    1  0.5701701E+000  0.1796012E+03  0.7818608E-02  0.1168190E+00
         21   -1    0    0  501  502  0.00000000000E+00  0.00000000000E+00  0.20732614888E+03  0.20732614888E+03  0.00000000000E+00 0. -1.
         21   -1    0    0  502  503 -0.00000000000E+00 -0.00000000000E+00 -0.28044764071E+03  0.28044764071E+03  0.00000000000E+00 0.  1.
          6    1    1    2  501    0  0.51585893947E+02  0.33888512914E+01  0.12617423769E+03  0.21949151925E+03  0.17200000000E+03 0. -1.
         -6    1    1    2    0  503 -0.51585893947E+02 -0.33888512914E+01 -0.19929572952E+03  0.26828227033E+03  0.17200000000E+03 0.  1.
</event>
<event>
 4    1  0.5701701E+000  0.4181111E+03  0.7818608E-02  0.1037683E+00
         21   -1    0    0  503  502  0.00000000000E+00  0.00000000000E+00  0.33412456638E+03  0.33412456638E+03  0.00000000000E+00 0. -1.
         21   -1    0    0  501  503 -0.00000000000E+00 -0.00000000000E+00 -0.72526771075E+03  0.72526771075E+03  0.00000000000E+00 0.  1.
          6    1    1    2  501    0  0.38053932533E+03 -0.20558996296E+02 -0.47515848703E+03  0.63292372230E+03  0.17200000000E+03 0.  1.
         -6    1    1    2    0  502 -0.38053932533E+03  0.20558996296E+02  0.84015342659E+02  0.42646855483E+03  0.17200000000E+03 0. -1.
</event>
<event>
 4    1  0.5701701E+000  0.2067320E+03  0.7818608E-02  0.1144180E+00
         21   -1    0    0  501  502  0.00000000000E+00  0.00000000000E+00  0.10591308354E+04  0.10591308354E+04  0.00000000000E+00 0.  1.
         21   -1    0    0  502  503 -0.00000000000E+00 -0.00000000000E+00 -0.40851602493E+02  0.40851602493E+02  0.00000000000E+00 0. -1.
          6    1    1    2  501    0 -0.11419076491E+03  0.10704683379E+02  0.56995778164E+03  0.60629200381E+03  0.17200000000E+03 0. -1.
         -6    1    1    2    0  503  0.11419076491E+03 -0.10704683379E+02  0.44832145128E+03  0.49369043409E+03  0.17200000000E+03 0.  1.
</event>
<event>
 4    1  0.5701701E+000  0.1786778E+03  0.7818608E-02  0.1169089E+00
         21   -1    0    0  501  502  0.00000000000E+00  0.00000000000E+00  0.94721859500E+03  0.94721859500E+03  0.00000000000E+00 0. -1.
         21   -1    0    0  502  503 -0.00000000000E+00 -0.00000000000E+00 -0.41539398511E+02  0.41539398511E+02  0.00000000000E+00 0. -1.
          6    1    1    2  501    0 -0.37276848206E+02 -0.30857758150E+02  0.66754338609E+03  0.69104264482E+03  0.17200000000E+03 0. -1.
         -6    1    1    2    0  503  0.37276848206E+02  0.30857758150E+02  0.23813581040E+03  0.29771534869E+03  0.17200000000E+03 0. -1.
</event>
<event>
 4    1  0.5701701E+000  0.2615004E+03  0.7818608E-02  0.1106245E+00
         21   -1    0    0  501  502  0.00000000000E+00  0.00000000000E+00  0.91190405416E+03  0.91190405416E+03  0.00000000000E+00 0.  1.
         21   -1    0    0  502  503 -0.00000000000E+00 -0.00000000000E+00 -0.17001066621E+03  0.17001066621E+03  0.00000000000E+00 0.  1.
          6    1    1    2  501    0 -0.19688501406E+03  0.58928676588E+01  0.77537087852E+03  0.81828016834E+03  0.17200000000E+03 0.  1.
         -6    1    1    2    0  503  0.19688501406E+03 -0.58928676588E+01 -0.33477490566E+02  0.26363455203E+03  0.17200000000E+03 0.  1.
</event>
<event>
 4    1  0.5701701E+000  0.1762958E+03  0.7818608E-02  0.1171437E+00
         21   -1    0    0  501  502  0.00000000000E+00  0.00000000000E+00  0.37411301948E+03  0.37411301948E+03  0.00000000000E+00 0. -1.
         21   -1    0    0  502  503 -0.00000000000E+00 -0.00000000000E+00 -0.34390452074E+03  0.34390452074E+03  0.00000000000E+00 0. -1.
          6    1    1    2  501    0  0.33132247398E+02 -0.19961563079E+02  0.32775737311E+03  0.37216274054E+03  0.17200000000E+03 0. -1.
         -6    1    1    2    0  503 -0.33132247398E+02  0.19961563079E+02 -0.29754887437E+03  0.34585479968E+03  0.17200000000E+03 0. -1.
</event>
<event>
 4    1  0.5701701E+000  0.2291848E+03  0.7818608E-02  0.1127215E+00
         21   -1    0    0  503  502  0.00000000000E+00  0.00000000000E+00  0.70662761206E+02  0.70662761206E+02  0.00000000000E+00 0.  1.
         21   -1    0    0  501  503 -0.00000000000E+00 -0.00000000000E+00 -0.11128539397E+04  0.11128539397E+04  0.00000000000E+00 0.  1.
          6    1    1    2  501    0  0.54293347073E+02  0.14139975191E+03 -0.86209008890E+03  0.89203418026E+03  0.17200000000E+03 0.  1.
         -6    1    1    2    0  502 -0.54293347073E+02 -0.14139975191E+03 -0.18010108963E+03  0.29148252068E+03  0.17200000000E+03 0.  1.
</event>
<event>
 4    1  0.5701701E+000  0.1930050E+03  0.7818608E-02  0.1155779E+00
         21   -1    0    0  503  502  0.00000000000E+00  0.00000000000E+00  0.30867450067E+03  0.30867450067E+03  0.00000000000E+00 0.  1.
         21   -1    0    0  501  503 -0.00000000000E+00 -0.00000000000E+00 -0.25116600607E+03  0.25116600607E+03  0.00000000000E+00 0.  1.
          6    1    1    2  501    0  0.85977736889E+02 -0.16576111090E+02 -0.17300587061E+03  0.25919484942E+03  0.17200000000E+03 0.  1.
         -6    1    1    2    0  502 -0.85977736889E+02  0.16576111090E+02  0.23051436521E+03  0.30064565732E+03  0.17200000000E+03 0.  1.
</event>
<event>
 4    1  0.5701701E+000  0.2432453E+03  0.7818608E-02  0.1117650E+00
         21   -1    0    0  501  502  0.00000000000E+00  0.00000000000E+00  0.16076570331E+04  0.16076570331E+04  0.00000000000E+00 0.  1.
         21   -1    0    0  502  503 -0.00000000000E+00 -0.00000000000E+00 -0.77877206620E+02  0.77877206620E+02  0.00000000000E+00 0.  1.
          6    1    1    2  501    0 -0.73855433092E+02  0.15533725209E+03  0.13769322309E+04  0.13982527151E+04  0.17200000000E+03 0.  1.
         -6    1    1    2    0  503  0.73855433092E+02 -0.15533725209E+03  0.15284759554E+03  0.28728152455E+03  0.17200000000E+03 0.  1.
</event>
<event>
 4    1  0.5701701E+000  0.1950243E+03  0.7818608E-02  0.1154006E+00
         21   -1    0    0  503  502  0.00000000000E+00  0.00000000000E+00  0.43205275658E+03  0.43205275658E+03  0.00000000000E+00 0.  1.
         21   -1    0    0  501  503 -0.00000000000E+00 -0.00000000000E+00 -0.11705504798E+03  0.11705504798E+03  0.00000000000E+00 0.  1.
          6    1    1    2  501    0 -0.29474222997E+02  0.87073328242E+02  0.20787808346E+02  0.19612910872E+03  0.17200000000E+03 0.  1.
         -6    1    1    2    0  502  0.29474222997E+02 -0.87073328242E+02  0.29420990025E+03  0.35297869584E+03  0.17200000000E+03 0.  1.
</event>
<event>
 4    1  0.5701701E+000  0.1734214E+03  0.7818608E-02  0.1174326E+00
         21   -1    0    0  501  502  0.00000000000E+00  0.00000000000E+00  0.13788567554E+03  0.13788567554E+03  0.00000000000E+00 0.  1.
         21   -1    0    0  502  503 -0.00000000000E+00 -0.00000000000E+00 -0.14966811670E+04  0.14966811670E+04  0.00000000000E+00 0.  1.
          6    1    1    2  501    0 -0.14476725977E+02 -0.16775093504E+02  0.75989400702E+02  0.18933929433E+03  0.17200000000E+03 0.  1.
         -6    1    1    2    0  503  0.14476725977E+02  0.16775093504E+02 -0.14347848921E+04  0.14452275482E+04  0.17200000000E+03 0.  1.
</event>
<event>
 4    1  0.5701701E+000  0.1962197E+03  0.7818608E-02  0.1152968E+00
         21   -1    0    0  503  502  0.00000000000E+00  0.00000000000E+00  0.15889712354E+03  0.15889712354E+03  0.00000000000E+00 0.  1.
         21   -1    0    0  501  503 -0.00000000000E+00 -0.00000000000E+00 -0.25867406635E+03  0.25867406635E+03  0.00000000000E+00 0.  1.
          6    1    1    2  501    0  0.78163340200E+02  0.52996923952E+02 -0.10240363943E+03  0.22133388143E+03  0.17200000000E+03 0. -1.
         -6    1    1    2    0  502 -0.78163340200E+02 -0.52996923952E+02  0.26266966098E+01  0.19623730847E+03  0.17200000000E+03 0. -1.
</event>
<event>
 4    1  0.5701701E+000  0.2105869E+03  0.7818608E-02  0.1141102E+00
         21   -1    0    0  501  502  0.00000000000E+00  0.00000000000E+00  0.14432408903E+04  0.14432408903E+04  0.00000000000E+00 0. -1.
         21   -1    0    0  502  503 -0.00000000000E+00 -0.00000000000E+00 -0.15937220613E+03  0.15937220613E+03  0.00000000000E+00 0. -1.
          6    1    1    2  501    0 -0.99110228706E+02  0.70285102153E+02  0.13618618537E+04  0.13780473655E+04  0.17200000000E+03 0. -1.
         -6    1    1    2    0  503  0.99110228706E+02 -0.70285102153E+02 -0.77993169514E+02  0.22456573093E+03  0.17200000000E+03 0. -1.
</event>
<event>
 4    1  0.5701701E+000  0.2047306E+03  0.7818608E-02  0.1145808E+00
         21   -1    0    0  501  502  0.00000000000E+00  0.00000000000E+00  0.23225016891E+03  0.23225016891E+03  0.00000000000E+00 0.  1.
         21   -1    0    0  502  503 -0.00000000000E+00 -0.00000000000E+00 -0.41735675010E+03  0.41735675010E+03  0.00000000000E+00 0.  1.
          6    1    1    2  501    0  0.70157985463E+02  0.86072614750E+02  0.15214759116E+03  0.25507553280E+03  0.17200000000E+03 0.  1.
         -6    1    1    2    0  503 -0.70157985463E+02 -0.86072614750E+02 -0.33725417235E+03  0.39453138621E+03  0.17200000000E+03 0.  1.
</event>
<event>
 4    1  0.5701701E+000  0.2053173E+03  0.7818608E-02  0.1145329E+00
         21   -1    0    0  503  502  0.00000000000E+00  0.00000000000E+00  0.20939884069E+03  0.20939884069E+03  0.00000000000E+00 0. -1.
         21   -1    0    0  501  503 -0.00000000000E+00 -0.00000000000E+00 -0.80260713800E+03  0.80260713800E+03  0.00000000000E+00 0. -1.
          6    1    1    2  501    0  0.95235623987E+02 -0.59172348505E+02 -0.73457401141E+03  0.76272810958E+03  0.17200000000E+03 0. -1.
         -6    1    1    2    0  502 -0.95235623987E+02  0.59172348505E+02  0.14136571411E+03  0.24927786911E+03  0.17200000000E+03 0. -1.
</event>
<event>
 4    1  0.5701701E+000  0.1867380E+03  0.7818608E-02  0.1161437E+00
         21   -1    0    0  501  502  0.00000000000E+00  0.00000000000E+00  0.39022472846E+02  0.39022472846E+02  0.00000000000E+00 0. -1.
         21   -1    0    0  502  503 -0.00000000000E+00 -0.00000000000E+00 -0.13310422224E+04  0.13310422224E+04  0.00000000000E+00 0. -1.
          6    1    1    2  501    0  0.34606195761E+02 -0.63949026410E+02 -0.25330339168E+03  0.31469616299E+03  0.17200000000E+03 0. -1.
         -6    1    1    2    0  503 -0.34606195761E+02  0.63949026410E+02 -0.10387163579E+04  0.10553685323E+04  0.17200000000E+03 0. -1.
</event>
<event>
 4    1  0.5701701E+000  0.1826423E+03  0.7818608E-02  0.1165270E+00
         21   -1    0    0  501  502  0.00000000000E+00  0.00000000000E+00  0.12277166222E+02  0.12277166222E+02  0.00000000000E+00 0.  1.
         21   -1    0    0  502  503 -0.00000000000E+00 -0.00000000000E+00 -0.28929896326E+04  0.28929896326E+04  0.00000000000E+00 0.  1.
          6    1    1    2  501    0  0.47565553424E+02 -0.38881120837E+02 -0.17985427511E+04  0.18077926460E+04  0.17200000000E+03 0.  1.
         -6    1    1    2    0  503 -0.47565553424E+02  0.38881120837E+02 -0.10821697153E+04  0.10974741529E+04  0.17200000000E+03 0.  1.
</event>
<event>
 4    1  0.5701701E+000  0.2858846E+03  0.7818608E-02  0.1092518E+00
         21   -1    0    0  501  502  0.00000000000E+00  0.00000000000E+00  0.15634659288E+03  0.15634659288E+03  0.00000000000E+00 0. -1.
         21   -1    0    0  502  503 -0.00000000000E+00 -0.00000000000E+00 -0.67186290872E+03  0.67186290872E+03  0.00000000000E+00 0.  1.
          6    1    1    2  501    0 -0.86598824273E+02  0.21129760209E+03 -0.62670909457E+02  0.29267332626E+03  0.17200000000E+03 0. -1.
         -6    1    1    2    0  503  0.86598824273E+02 -0.21129760209E+03 -0.45284540638E+03  0.53553617534E+03  0.17200000000E+03 0.  1.
</event>
<event>
 4    1  0.5701701E+000  0.1931911E+03  0.7818608E-02  0.1155614E+00
         21   -1    0    0  503  502  0.00000000000E+00  0.00000000000E+00  0.10630036010E+04  0.10630036010E+04  0.00000000000E+00 0. -1.
         21   -1    0    0  501  503 -0.00000000000E+00 -0.00000000000E+00 -0.43712980827E+02  0.43712980827E+02  0.00000000000E+00 0. -1.
          6    1    1    2  501    0  0.87358943245E+02  0.10353970823E+02  0.75512087943E+03  0.77944232130E+03  0.17200000000E+03 0. -1.
         -6    1    1    2    0  502 -0.87358943245E+02 -0.10353970823E+02  0.26416974070E+03  0.32727426049E+03  0.17200000000E+03 0. -1.
</event>
<event>
 4    1  0.5701701E+000  0.1978869E+03  0.7818608E-02  0.1151534E+00
         21   -1    0    0  503  502  0.00000000000E+00  0.00000000000E+00  0.41466711353E+03  0.41466711353E+03  0.00000000000E+00 0. -1.
         21   -1    0    0  501  503 -0.00000000000E+00 -0.00000000000E+00 -0.10958480240E+03  0.10958480240E+03  0.00000000000E+00 0. -1.
          6    1    1    2  501    0  0.77843194644E+02  0.59292930698E+02  0.55079450546E+02  0.20540925114E+03  0.17200000000E+03 0. -1.
         -6    1    1    2    0  502 -0.77843194644E+02 -0.59292930698E+02  0.25000286059E+03  0.31884266478E+03  0.17200000000E+03 0. -1.
</event>
<event>
 4    1  0.5701701E+000  0.1913283E+03  0.7818608E-02  0.1157269E+00
         21   -1    0    0  503  502  0.00000000000E+00  0.00000000000E+00  0.90826050605E+03  0.90826050605E+03  0.00000000000E+00 0. -1.
         21   -1    0    0  501  503 -0.00000000000E+00 -0.00000000000E+00 -0.51149353943E+02  0.51149353943E+02  0.00000000000E+00 0.  1.
          6    1    1    2  501    0 -0.83743772443E+02 -0.30806045814E+01  0.20766537372E+03  0.28236752113E+03  0.17200000000E+03 0.  1.
         -6    1    1    2    0  502  0.83743772443E+02  0.30806045814E+01  0.64944577839E+03  0.67704233886E+03  0.17200000000E+03 0. -1.
</event>
<event>
 4    1  0.5701701E+000  0.2541270E+03  0.7818608E-02  0.1110724E+00
         21   -1    0    0  501  502  0.00000000000E+00  0.00000000000E+00  0.24770314119E+03  0.24770314119E+03  0.00000000000E+00 0. -1.
         21   -1    0    0  502  503 -0.00000000000E+00 -0.00000000000E+00 -0.70765636044E+03  0.70765636044E+03  0.00000000000E+00 0.  1.
          6    1    1    2  501    0  0.64923370500E+01  0.18696087648E+03  0.14964395431E+03  0.29491326324E+03  0.17200000000E+03 0. -1.
         -6    1    1    2    0  503 -0.64923370500E+01 -0.18696087648E+03 -0.60959717356E+03  0.66044623838E+03  0.17200000000E+03 0.  1.
</event>
<event>
 4    1  0.5701701E+000  0.2201459E+03  0.7818608E-02  0.1133774E+00
         21   -1    0    0  503  502  0.00000000000E+00  0.00000000000E+00  0.32451325331E+03  0.32451325331E+03  0.00000000000E+00 0.  1.
         21   -1    0    0  501  503 -0.00000000000E+00 -0.00000000000E+00 -0.18769803545E+03  0.18769803545E+03  0.00000000000E+00 0.  1.
          6    1    1    2  501    0  0.11793461514E+03 -0.70509731427E+02 -0.47361656448E+02  0.22518286386E+03  0.17200000000E+03 0.  1.
         -6    1    1    2    0  502 -0.11793461514E+03  0.70509731427E+02  0.18417687430E+03  0.28702842490E+03  0.17200000000E+03 0.  1.
</event>
<event>
 4    1  0.5701701E+000  0.2126346E+03  0.7818608E-02  0.1139496E+00
         21   -1    0    0  503  502  0.00000000000E+00  0.00000000000E+00  0.14274703536E+04  0.14274703536E+04  0.00000000000E+00 0. -1.
         21   -1    0    0  501  503 -0.00000000000E+00 -0.00000000000E+00 -0.66593901146E+02  0.66593901146E+02  0.00000000000E+00 0. -1.
          6    1    1    2  501    0 -0.94905907156E+02  0.81377801605E+02  0.13948526258E+03  0.25430221447E+03  0.17200000000E+03 0. -1.
         -6    1    1    2    0  502  0.94905907156E+02 -0.81377801605E+02  0.12213911899E+04  0.12397620403E+04  0.17200000000E+03 0. -1.
</event>
<event>
 4    1  0.5701701E+000  0.1778063E+03  0.7818608E-02  0.1169943E+00
         21   -1    0    0  503  502  0.00000000000E+00  0.00000000000E+00  0.21944914579E+03  0.21944914579E+03  0.00000000000E+00 0.  1.
         21   -1    0    0  501  503 -0.00000000000E+00 -0.00000000000E+00 -0.15331404739E+03  0.15331404739E+03  0.00000000000E+00 0.  1.
          6    1    1    2  501    0 -0.44924010164E+02 -0.35956228167E+01 -0.12709108354E+02  0.17825996922E+03  0.17200000000E+03 0. -1.
         -6    1    1    2    0  502  0.44924010164E+02  0.35956228167E+01  0.78844206754E+02  0.19450322396E+03  0.17200000000E+03 0. -1.
</event>
<event>
 4    1  0.5701701E+000  0.1905930E+03  0.7818608E-02  0.1157928E+00
         21   -1    0    0  503  502  0.00000000000E+00  0.00000000000E+00  0.20714430506E+03  0.20714430506E+03  0.00000000000E+00 0. -1.
         21   -1    0    0  501  503 -0.00000000000E+00 -0.00000000000E+00 -0.18029025945E+03  0.18029025945E+03  0.00000000000E+00 0. -1.
          6    1    1    2  501    0  0.78918332397E+02 -0.22662374076E+02 -0.18593908988E+02  0.19149783246E+03  0.17200000000E+03 0.  1.
         -6    1    1    2    0  502 -0.78918332397E+02  0.22662374076E+02  0.45447954598E+02  0.19593673204E+03  0.17200000000E+03 0.  1.
</event>
<event>
 4    1  0.5701701E+000  0.2028802E+03  0.7818608E-02  0.1147331E+00
         21   -1    0    0  503  502  0.00000000000E+00  0.00000000000E+00  0.10368744130E+04  0.10368744130E+04  0.00000000000E+00 0.  1.
         21   -1    0    0  501  503 -0.00000000000E+00 -0.00000000000E+00 -0.16587236800E+03  0.16587236800E+03  0.00000000000E+00 0.  1.
          6    1    1    2  501    0 -0.57565613000E+02 -0.90898769094E+02 -0.88998585923E+02  0.22154262416E+03  0.17200000000E+03 0.  1.
         -6    1    1    2    0  502  0.57565613000E+02  0.90898769094E+02  0.96000063093E+03  0.98120415684E+03  0.17200000000E+03 0.  1.
</event>
<event>
 4    1  0.5701701E+000  0.2944318E+03  0.7818608E-02  0.1088058E+00
         21   -1    0    0  501  502  0.00000000000E+00  0.00000000000E+00  0.86938220568E+02  0.86938220568E+02  0.00000000000E+00 0. -1.
         21   -1    0    0  502  503 -0.00000000000E+00 -0.00000000000E+00 -0.10078676682E+04  0.10078676682E+04  0.00000000000E+00 0. -1.
          6    1    1    2  501    0  0.15135027759E+03 -0.18493022456E+03 -0.40400515208E+03  0.49991024934E+03  0.17200000000E+03 0.  1.
         -6    1    1    2    0  503 -0.15135027759E+03  0.18493022456E+03 -0.51692429554E+03  0.59489563942E+03  0.17200000000E+03 0.  1.
</event>
<event>
 4    1  0.5701701E+000  0.2827406E+03  0.7818608E-02  0.1094201E+00
         21   -1    0    0  501  502  0.00000000000E+00  0.00000000000E+00  0.24507113382E+03  0.24507113382E+03  0.00000000000E+00 0. -1.
         21   -1    0    0  502  503 -0.00000000000E+00 -0.00000000000E+00 -0.32667304178E+03  0.32667304178E+03  0.00000000000E+00 0.  1.
          6    1    1    2  501    0 -0.16992029737E+03  0.14657873253E+03 -0.29923892518E+02  0.28431966452E+03  0.17200000000E+03 0.  1.
         -6    1    1    2    0  503  0.16992029737E+03 -0.14657873253E+03 -0.51678015446E+02  0.28742451108E+03  0.17200000000E+03 0. -1.
</event>
<event>
 4    1  0.5701701E+000  0.1797190E+03  0.7818608E-02  0.1168075E+00
         21   -1    0    0  503  502  0.00000000000E+00  0.00000000000E+00  0.91882857164E+02  0.91882857164E+02  0.00000000000E+00 0. -1.
         21   -1    0    0  501  503 -0.00000000000E+00 -0.00000000000E+00 -0.35591663528E+03  0.35591663528E+03  0.00000000000E+00 0. -1.
          6    1    1    2  501    0 -0.37278127408E+02 -0.36403930752E+02 -0.15689451973E+03  0.23856821934E+03  0.17200000000E+03 0.  1.
         -6    1    1    2    0  502  0.37278127408E+02  0.36403930752E+02 -0.10713925838E+03  0.20923127310E+03  0.17200000000E+03 0.  1.
</event>
<event>
 4    1  0.5701701E+000  0.2051930E+03  0.7818608E-02  0.1145430E+00
         21   -1    0    0  503  502  0.00000000000E+00  0.00000000000E+00  0.90011844454E+02  0.90011844454E+02  0.00000000000E+00 0.  1.
         21   -1    0    0  501  503 -0.00000000000E+00 -0.00000000000E+00 -0.51306942272E+03  0.51306942272E+03  0.00000000000E+00 0.  1.
          6    1    1    2  501    0  0.68150607953E+02 -0.88744842254E+02 -0.30113554443E+03  0.36439918840E+03  0.17200000000E+03 0.  1.
         -6    1    1    2    0  502 -0.68150607953E+02  0.88744842254E+02 -0.12192203384E+03  0.23868207877E+03  0.17200000000E+03 0.  1.
</event>
<event>
 4    1  0.5701701E+000  0.1861470E+03  0.7818608E-02  0.1161983E+00
         21   -1    0    0  501  502  0.00000000000E+00  0.00000000000E+00  0.22842614541E+03  0.22842614541E+03  0.00000000000E+00 0.  1.
         21   -1    0    0  502  503 -0.00000000000E+00 -0.00000000000E+00 -0.17829939579E+03  0.17829939579E+03  0.00000000000E+00 0.  1.
          6    1    1    2  501    0 -0.67681942533E+02 -0.22042051724E+02  0.10362089169E+03  0.21304456479E+03  0.17200000000E+03 0.  1.
         -6    1    1    2    0  503  0.67681942533E+02  0.22042051724E+02 -0.53494142065E+02  0.19368097641E+03  0.17200000000E+03 0.  1.
</event>
<event>
 4    1  0.5701701E+000  0.1867907E+03  0.7818608E-02  0.1161388E+00
         21   -1    0    0  501  502  0.00000000000E+00  0.00000000000E+00  0.10833699702E+03  0.10833699702E+03  0.00000000000E+00 0. -1.
         21   -1    0    0  502  503 -0.00000000000E+00 -0.00000000000E+00 -0.33172956322E+03  0.33172956322E+03  0.00000000000E+00 0. -1.
          6    1    1    2  501    0 -0.12420110481E+02  0.71780993374E+02 -0.14926705342E+03  0.23910546500E+03  0.17200000000E+03 0. -1.
         -6    1    1    2    0  503  0.12420110481E+02 -0.71780993374E+02 -0.74125512777E+02  0.20096109524E+03  0.17200000000E+03 0. -1.
</event>
<event>
 4    1  0.5701701E+000  0.1734652E+03  0.7818608E-02  0.1174282E+00
         21   -1    0    0  503  502  0.00000000000E+00  0.00000000000E+00  0.32160981223E+02  0.32160981223E+02  0.00000000000E+00 0.  1.
         21   -1    0    0  501  503 -0.00000000000E+00 -0.00000000000E+00 -0.14265756699E+04  0.14265756699E+04  0.00000000000E+00 0.  1.
          6    1    1    2  501    0  0.20513245846E+02 -0.92407779116E+01 -0.11250896956E+04  0.11383835067E+04  0.17200000000E+03 0.  1.
         -6    1    1    2    0  502 -0.20513245846E+02  0.92407779116E+01 -0.26932499308E+03  0.32035314440E+03  0.17200000000E+03 0.  1.
</event>
<event>
 4    1  0.5701701E+000  0.2085364E+03  0.7818608E-02  0.1142730E+00
         21   -1    0    0  501  502  0.00000000000E+00  0.00000000000E+00  0.27185382702E+03  0.27185382702E+03  0.00000000000E+00 0.  1.
         21   -1    0    0  502  503 -0.00000000000E+00 -0.00000000000E+00 -0.17123622438E+03  0.17123622438E+03  0.00000000000E+00 0.  1.
          6    1    1    2  501    0  0.11087368902E+03  0.40130582758E+02  0.10714506910E+03  0.23445149695E+03  0.17200000000E+03 0.  1.
         -6    1    1    2    0  503 -0.11087368902E+03 -0.40130582758E+02 -0.65274664585E+01  0.20863855446E+03  0.17200000000E+03 0.  1.
</event>
<event>
 4    1  0.5701701E+000  0.2111090E+03  0.7818608E-02  0.1140691E+00
         21   -1    0    0  503  502  0.00000000000E+00  0.00000000000E+00  0.42708757116E+03  0.42708757116E+03  0.00000000000E+00 0.  1.
         21   -1    0    0  501  503 -0.00000000000E+00 -0.00000000000E+00 -0.29578247275E+03  0.29578247275E+03  0.00000000000E+00 0.  1.
          6    1    1    2  501    0  0.25115048144E+02  0.11980090505E+03 -0.22511816630E+03  0.30861822904E+03  0.17200000000E+03 0.  1.
         -6    1    1    2    0  502 -0.25115048144E+02 -0.11980090505E+03  0.35642326471E+03  0.41425181487E+03  0.17200000000E+03 0.  1.
</event>
<event>
 4    1  0.5701701E+000  0.1881954E+03  0.7818608E-02  0.1160099E+00
         21   -1    0    0  503  502  0.00000000000E+00  0.00000000000E+00  0.88951787089E+03  0.88951787089E+03  0.00000000000E+00 0. -1.
         21   -1    0    0  501  503 -0.00000000000E+00 -0.00000000000E+00 -0.55307590122E+02  0.55307590122E+02  0.00000000000E+00 0. -1.
          6    1    1    2  501    0  0.73977752086E+02 -0.18994810753E+02  0.16708795432E+03  0.25166623754E+03  0.17200000000E+03 0. -1.
         -6    1    1    2    0  502 -0.73977752086E+02  0.18994810753E+02  0.66712232645E+03  0.69315922347E+03  0.17200000000E+03 0. -1.
</event>
<event>
 4    1  0.5701701E+000  0.1872770E+03  0.7818608E-02  0.1160940E+00
         21   -1    0    0  501  502  0.00000000000E+00  0.00000000000E+00  0.28248767644E+02  0.28248767644E+02  0.00000000000E+00 0.  1.
         21   -1    0    0  502  503 -0.00000000000E+00 -0.00000000000E+00 -0.13610069982E+04  0.13610069982E+04  0.00000000000E+00 0.  1.
          6    1    1    2  501    0 -0.44890535052E+02  0.58936474322E+02 -0.46059994890E+03  0.49721723730E+03  0.17200000000E+03 0.  1.
         -6    1    1    2    0  503  0.44890535052E+02 -0.58936474322E+02 -0.87215828169E+03  0.89203852858E+03  0.17200000000E+03 0.  1.
</event>
<event>
 4    1  0.5701701E+000  0.1798256E+03  0.7818608E-02  0.1167972E+00
         21   -1    0    0  503  502  0.00000000000E+00  0.00000000000E+00  0.19517926789E+03  0.19517926789E+03  0.00000000000E+00 0. -1.
         21   -1    0    0  501  503 -0.00000000000E+00 -0.00000000000E+00 -0.16641095320E+03  0.16641095320E+03  0.00000000000E+00 0. -1.
          6    1    1    2  501    0 -0.36432005902E+02 -0.37761989989E+02  0.26368236694E+02  0.18174857042E+03  0.17200000000E+03 0. -1.
         -6    1    1    2    0  502  0.36432005902E+02  0.37761989989E+02  0.24000780025E+01  0.17984165067E+03  0.17200000000E+03 0. -1.
</event>
<event>
 4    1  0.5701701E+000  0.1768416E+03  0.7818608E-02  0.1170895E+00
         21   -1    0    0  503  502  0.00000000000E+00  0.00000000000E+00  0.23895656598E+03  0.23895656598E+03  0.00000000000E+00 0. -1.
         21   -1    0    0  501  503 -0.00000000000E+00 -0.00000000000E+00 -0.14341110049E+03  0.14341110049E+03  0.00000000000E+00 0.  1.
          6    1    1    2  501    0 -0.39189399067E+01  0.40909777276E+02 -0.87567835359E+01  0.17705832153E+03  0.17200000000E+03 0. -1.
         -6    1    1    2    0  502  0.39189399067E+01 -0.40909777276E+02  0.10430224902E+03  0.20530934494E+03  0.17200000000E+03 0. -1.
</event>
<event>
 4    1  0.5701701E+000  0.2483440E+03  0.7818608E-02  0.1114356E+00
         21   -1    0    0  503  502  0.00000000000E+00  0.00000000000E+00  0.61780683127E+03  0.61780683127E+03  0.00000000000E+00 0. -1.
         21   -1    0    0  501  503 -0.00000000000E+00 -0.00000000000E+00 -0.99831646660E+02  0.99831646660E+02  0.00000000000E+00 0. -1.
          6    1    1    2  501    0 -0.17907317808E+03 -0.48492150570E+01  0.26100791526E+03  0.36027746227E+03  0.17200000000E+03 0. -1.
         -6    1    1    2    0  502  0.17907317808E+03  0.48492150570E+01  0.25696726935E+03  0.35736101566E+03  0.17200000000E+03 0. -1.
</event>
<event>
 4    1  0.5701701E+000  0.1929742E+03  0.7818608E-02  0.1155806E+00
         21   -1    0    0  501  502  0.00000000000E+00  0.00000000000E+00  0.88603269723E+03  0.88603269723E+03  0.00000000000E+00 0. -1.
         21   -1    0    0  502  503 -0.00000000000E+00 -0.00000000000E+00 -0.42045617263E+02  0.42045617263E+02  0.00000000000E+00 0. -1.
          6    1    1    2  501    0  0.81066830249E+02 -0.32912050869E+02  0.43122940165E+03  0.47243817681E+03  0.17200000000E+03 0. -1.
         -6    1    1    2    0  503 -0.81066830249E+02  0.32912050869E+02  0.41275767832E+03  0.45564013768E+03  0.17200000000E+03 0. -1.
</event>
<event>
 4    1  0.5701701E+000  0.2986950E+03  0.7818608E-02  0.1085895E+00
         21   -1    0    0  501  502  0.00000000000E+00  0.00000000000E+00  0.28703808017E+03  0.28703808017E+03  0.00000000000E+00 0. -1.
         21   -1    0    0  502  503 -0.00000000000E+00 -0.00000000000E+00 -0.10396043756E+04  0.10396043756E+04  0.00000000000E+00 0.  1.
          6    1    1    2  501    0  0.22308610197E+03  0.99334194317E+02 -0.93166003318E+03  0.97837063962E+03  0.17200000000E+03 0.  1.
         -6    1    1    2    0  503 -0.22308610197E+03 -0.99334194317E+02  0.17909373772E+03  0.34827181618E+03  0.17200000000E+03 0. -1.
</event>
<event>
 4    1  0.5701701E+000  0.2894413E+03  0.7818608E-02  0.1090641E+00
         21   -1    0    0  503  502  0.00000000000E+00  0.00000000000E+00  0.33042015741E+02  0.33042015741E+02  0.00000000000E+00 0.  1.
         21   -1    0    0  501  503 -0.00000000000E+00 -0.00000000000E+00 -0.26213193990E+04  0.26213193990E+04  0.00000000000E+00 0. -1.
          6    1    1    2  501    0 -0.21223152363E+03 -0.95655865208E+02 -0.10539248249E+04  0.10929473000E+04  0.17200000000E+03 0. -1.
         -6    1    1    2    0  502  0.21223152363E+03  0.95655865208E+02 -0.15343525584E+04  0.15614141147E+04  0.17200000000E+03 0.  1.
</event>
<event>
 4    1  0.5701701E+000  0.1825816E+03  0.7818608E-02  0.1165328E+00
         21   -1    0    0  503  502  0.00000000000E+00  0.00000000000E+00  0.77157558504E+03  0.77157558504E+03  0.00000000000E+00 0. -1.
         21   -1    0    0  501  503 -0.00000000000E+00 -0.00000000000E+00 -0.13878126084E+03  0.13878126084E+03  0.00000000000E+00 0. -1.
          6    1    1    2  501    0  0.39420077215E+02 -0.46884022088E+02 -0.61341019230E+02  0.19261042198E+03  0.17200000000E+03 0. -1.
         -6    1    1    2    0  502 -0.39420077215E+02  0.46884022088E+02  0.69413534343E+03  0.71774642389E+03  0.17200000000E+03 0. -1.
</event>
<event>
 4    1  0.5701701E+000  0.2536153E+03  0.7818608E-02  0.1111041E+00
         21   -1    0    0  503  502  0.00000000000E+00  0.00000000000E+00  0.23587080259E+03  0.23587080259E+03  0.00000000000E+00 0.  1.
         21   -1    0    0  501  503 -0.00000000000E+00 -0.00000000000E+00 -0.30839071465E+03  0.30839071465E+03  0.00000000000E+00 0.  1.
          6    1    1    2  501    0 -0.18290533769E+03 -0.35810275918E+02 -0.12884403664E+03  0.28446708807E+03  0.17200000000E+03 0.  1.
         -6    1    1    2    0  502  0.18290533769E+03  0.35810275918E+02  0.56324124578E+02  0.25979442917E+03  0.17200000000E+03 0.  1.
</event>
<event>
 4    1  0.5701701E+000  0.2089465E+03  0.7818608E-02  0.1142403E+00
         21   -1    0    0  501  502  0.00000000000E+00  0.00000000000E+00  0.24367396695E+02  0.24367396695E+02  0.00000000000E+00 0. -1.
         21   -1    0    0  502  503 -0.00000000000E+00 -0.00000000000E+00 -0.19850629075E+04  0.19850629075E+04  0.00000000000E+00 0. -1.
          6    1    1    2  501    0  0.11005754780E+03 -0.44294097919E+02 -0.66675762463E+03  0.69873053529E+03  0.17200000000E+03 0. -1.
         -6    1    1    2    0  503 -0.11005754780E+03  0.44294097919E+02 -0.12939378861E+04  0.13106997689E+04  0.17200000000E+03 0. -1.
</event>
<event>
 4    1  0.5701701E+000  0.2550183E+03  0.7818608E-02  0.1110174E+00
         21   -1    0    0  503  502  0.00000000000E+00  0.00000000000E+00  0.13094290951E+03  0.13094290951E+03  0.00000000000E+00 0. -1.
         21   -1    0    0  501  503 -0.00000000000E+00 -0.00000000000E+00 -0.92854096093E+03  0.92854096093E+03  0.00000000000E+00 0. -1.
          6    1    1    2  501    0 -0.54626854300E+02 -0.18018394102E+03 -0.76007986316E+03  0.80172049006E+03  0.17200000000E+03 0.  1.
         -6    1    1    2    0  502  0.54626854300E+02  0.18018394102E+03 -0.37518188265E+02  0.25776338038E+03  0.17200000000E+03 0.  1.
</event>
<event>
 4    1  0.5701701E+000  0.2022670E+03  0.7818608E-02  0.1147840E+00
         21   -1    0    0  501  502  0.00000000000E+00  0.00000000000E+00  0.42981492235E+02  0.42981492235E+02  0.00000000000E+00 0. -1.
         21   -1    0    0  502  503 -0.00000000000E+00 -0.00000000000E+00 -0.96913797941E+03  0.96913797941E+03  0.00000000000E+00 0.  1.
          6    1    1    2  501    0  0.72322661977E+02  0.78085599808E+02 -0.39548822401E+03  0.44421038221E+03  0.17200000000E+03 0. -1.
         -6    1    1    2    0  503 -0.72322661977E+02 -0.78085599808E+02 -0.53066826317E+03  0.56790908944E+03  0.17200000000E+03 0.  1.
</event>
<event>
 4    1  0.5701701E+000  0.2871396E+03  0.7818608E-02  0.1091852E+00
         21   -1    0    0  503  502  0.00000000000E+00  0.00000000000E+00  0.17762080042E+03  0.17762080042E+03  0.00000000000E+00 0.  1.
         21   -1    0    0  501  503 -0.00000000000E+00 -0.00000000000E+00 -0.46425658203E+03  0.46425658203E+03  0.00000000000E+00 0.  1.
          6    1    1    2  501    0 -0.19327051194E+03 -0.12454589596E+03 -0.14726212835E+03  0.32270002391E+03  0.17200000000E+03 0.  1.
         -6    1    1    2    0  502  0.19327051194E+03  0.12454589596E+03 -0.13937365326E+03  0.31917735855E+03  0.17200000000E+03 0.  1.
</event>
<event>
 4    1  0.5701701E+000  0.1722781E+03  0.7818608E-02  0.1175493E+00
         21   -1    0    0  503  502  0.00000000000E+00  0.00000000000E+00  0.17316809770E+03  0.17316809770E+03  0.00000000000E+00 0. -1.
         21   -1    0    0  501  503 -0.00000000000E+00 -0.00000000000E+00 -0.17622635572E+03  0.17622635572E+03  0.00000000000E+00 0. -1.
          6    1    1    2  501    0 -0.11034424030E+01  0.97230163689E+01 -0.30461676183E+02  0.17495047399E+03  0.17200000000E+03 0.  1.
         -6    1    1    2    0  502  0.11034424030E+01 -0.97230163689E+01  0.27403418164E+02  0.17444397943E+03  0.17200000000E+03 0.  1.
</event>
<event>
 4    1  0.5701701E+000  0.2305556E+03  0.7818608E-02  0.1126249E+00
         21   -1    0    0  503  502  0.00000000000E+00  0.00000000000E+00  0.26384108084E+04  0.26384108084E+04  0.00000000000E+00 0.  1.
         21   -1    0    0  501  503 -0.00000000000E+00 -0.00000000000E+00 -0.24575367334E+02  0.24575367334E+02  0.00000000000E+00 0. -1.
          6    1    1    2  501    0 -0.11566566969E+03  0.10096197005E+03  0.74170182180E+03  0.77670937873E+03  0.17200000000E+03 0. -1.
         -6    1    1    2    0  502  0.11566566969E+03 -0.10096197005E+03  0.18721336192E+04  0.18862767970E+04  0.17200000000E+03 0.  1.
</event>
<event>
 4    1  0.5701701E+000  0.2301796E+03  0.7818608E-02  0.1126513E+00
         21   -1    0    0  501  502  0.00000000000E+00  0.00000000000E+00  0.66851937215E+03  0.66851937215E+03  0.00000000000E+00 0.  1.
         21   -1    0    0  502  503 -0.00000000000E+00 -0.00000000000E+00 -0.79672958936E+02  0.79672958936E+02  0.00000000000E+00 0. -1.
          6    1    1    2  501    0  0.14903098305E+03  0.34473342917E+02  0.26728631965E+03  0.35273874462E+03  0.17200000000E+03 0.  1.
         -6    1    1    2    0  503 -0.14903098305E+03 -0.34473342917E+02  0.32156009356E+03  0.39545358647E+03  0.17200000000E+03 0.  1.
</event>
<event>
 4    1  0.5701701E+000  0.1725162E+03  0.7818608E-02  0.1175249E+00
         21   -1    0    0  503  502  0.00000000000E+00  0.00000000000E+00  0.13681365375E+04  0.13681365375E+04  0.00000000000E+00 0.  1.
         21   -1    0    0  501  503 -0.00000000000E+00 -0.00000000000E+00 -0.60709122685E+02  0.60709122685E+02  0.00000000000E+00 0.  1.
          6    1    1    2  501    0  0.12905997484E+02 -0.33560191929E+01  0.81427685620E+02  0.19076764826E+03  0.17200000000E+03 0.  1.
         -6    1    1    2    0  502 -0.12905997484E+02  0.33560191929E+01  0.12259997292E+04  0.12380780119E+04  0.17200000000E+03 0.  1.
</event>
<event>
 4    1  0.5701701E+000  0.2919539E+03  0.7818608E-02  0.1089333E+00
         21   -1    0    0  501  502  0.00000000000E+00  0.00000000000E+00  0.48979778782E+03  0.48979778782E+03  0.00000000000E+00 0. -1.
         21   -1    0    0  502  503 -0.00000000000E+00 -0.00000000000E+00 -0.26874300952E+03  0.26874300952E+03  0.00000000000E+00 0.  1.
          6    1    1    2  501    0  0.23421007102E+03  0.28261604231E+02  0.33569015165E+03  0.44488757407E+03  0.17200000000E+03 0. -1.
         -6    1    1    2    0  503 -0.23421007102E+03 -0.28261604231E+02 -0.11463537335E+03  0.31365322327E+03  0.17200000000E+03 0.  1.
</event>
<event>
 4    1  0.5701701E+000  0.1817525E+03  0.7818608E-02  0.1166118E+00
         21   -1    0    0  501  502  0.00000000000E+00  0.00000000000E+00  0.89182023249E+03  0.89182023249E+03  0.00000000000E+00 0. -1.
         21   -1    0    0  502  503 -0.00000000000E+00 -0.00000000000E+00 -0.45221542420E+02  0.45221542420E+02  0.00000000000E+00 0.  1.
          6    1    1    2  501    0 -0.58312908307E+02  0.70414663617E+01  0.62257094534E+03  0.64855883272E+03  0.17200000000E+03 0. -1.
         -6    1    1    2    0  503  0.58312908307E+02 -0.70414663617E+01  0.22402774473E+03  0.28848294219E+03  0.17200000000E+03 0.  1.
</event>
<event>
 4    1  0.5701701E+000  0.2207902E+03  0.7818608E-02  0.1133295E+00
         21   -1    0    0  501  502  0.00000000000E+00  0.00000000000E+00  0.11982821851E+04  0.11982821851E+04  0.00000000000E+00 0.  1.
         21   -1    0    0  502  503 -0.00000000000E+00 -0.00000000000E+00 -0.45780446546E+02  0.45780446546E+02  0.00000000000E+00 0. -1.
          6    1    1    2  501    0 -0.94064272714E+00  0.13843205684E+03  0.78383691835E+03  0.81433938486E+03  0.17200000000E+03 0.  1.
         -6    1    1    2    0  503  0.94064272714E+00 -0.13843205684E+03  0.36866482020E+03  0.42972324678E+03  0.17200000000E+03 0. -1.
</event>
<event>
 4    1  0.5701701E+000  0.2026591E+03  0.7818608E-02  0.1147515E+00
         21   -1    0    0  503  502  0.00000000000E+00  0.00000000000E+00  0.14627422145E+03  0.14627422145E+03  0.00000000000E+00 0.  1.
         21   -1    0    0  501  503 -0.00000000000E+00 -0.00000000000E+00 -0.56578421783E+03  0.56578421783E+03  0.00000000000E+00 0.  1.
          6    1    1    2  501    0 -0.76640282974E+02  0.74919700314E+02  0.42934281004E+02  0.20715705867E+03  0.17200000000E+03 0.  1.
         -6    1    1    2    0  502  0.76640282974E+02 -0.74919700314E+02 -0.46244427738E+03  0.50490138062E+03  0.17200000000E+03 0.  1.
</event>
<event>
 4    1  0.5701701E+000  0.1725257E+03  0.7818608E-02  0.1175239E+00
         21   -1    0    0  501  502  0.00000000000E+00  0.00000000000E+00  0.17937012702E+03  0.17937012702E+03  0.00000000000E+00 0.  1.
         21   -1    0    0  502  503 -0.00000000000E+00 -0.00000000000E+00 -0.46108572738E+03  0.46108572738E+03  0.00000000000E+00 0.  1.
          6    1    1    2  501    0  0.55154972710E+01  0.12275794402E+02  0.11534556079E+03  0.20753244139E+03  0.17200000000E+03 0.  1.
         -6    1    1    2    0  503 -0.55154972710E+01 -0.12275794402E+02 -0.39706116114E+03  0.43292341300E+03  0.17200000000E+03 0.  1.
</event>
<event>
 4    1  0.5701701E+000  0.2565215E+03  0.7818608E-02  0.1109251E+00
         21   -1    0    0  503  502  0.00000000000E+00  0.00000000000E+00  0.10337994825E+04  0.10337994825E+04  0.00000000000E+00 0. -1.
         21   -1    0    0  501  503 -0.00000000000E+00 -0.00000000000E+00 -0.81345251642E+02  0.81345251642E+02  0.00000000000E+00 0.  1.
          6    1    1    2  501    0 -0.19027279755E+03  0.39442290524E+01  0.21618704529E+03  0.33547001801E+03  0.17200000000E+03 0.  1.
         -6    1    1    2    0  502  0.19027279755E+03 -0.39442290524E+01  0.73626718552E+03  0.77967471609E+03  0.17200000000E+03 0.  1.
</event>
<event>
 4    1  0.5701701E+000  0.1748935E+03  0.7818608E-02  0.1172839E+00
         21   -1    0    0  503  502  0.00000000000E+00  0.00000000000E+00  0.81263822752E+02  0.81263822752E+02  0.00000000000E+00 0. -1.
         21   -1    0    0  501  503 -0.00000000000E+00 -0.00000000000E+00 -0.64966096907E+03  0.64966096907E+03  0.00000000000E+00 0. -1.
          6    1    1    2  501    0  0.29764014021E+02  0.10855868007E+02 -0.52122004235E+03  0.54978002778E+03  0.17200000000E+03 0.  1.
         -6    1    1    2    0  502 -0.29764014021E+02 -0.10855868007E+02 -0.47177103971E+02  0.18114476404E+03  0.17200000000E+03 0.  1.
</event>
<event>
 4    1  0.5701701E+000  0.2129152E+03  0.7818608E-02  0.1139278E+00
         21   -1    0    0  501  502  0.00000000000E+00  0.00000000000E+00  0.76955570133E+02  0.76955570133E+02  0.00000000000E+00 0.  1.
         21   -1    0    0  502  503 -0.00000000000E+00 -0.00000000000E+00 -0.60399804343E+03  0.60399804343E+03  0.00000000000E+00 0.  1.
          6    1    1    2  501    0  0.10398581774E+03  0.70255494111E+02 -0.21000998744E+03  0.29906032764E+03  0.17200000000E+03 0.  1.
         -6    1    1    2    0  503 -0.10398581774E+03 -0.70255494111E+02 -0.31703248585E+03  0.38189328592E+03  0.17200000000E+03 0.  1.
</event>
<event>
 4    1  0.5701701E+000  0.2773645E+03  0.7818608E-02  0.1097137E+00
         21   -1    0    0  501  502  0.00000000000E+00  0.00000000000E+00  0.14939858230E+03  0.14939858230E+03  0.00000000000E+00 0. -1.
         21   -1    0    0  502  503 -0.00000000000E+00 -0.00000000000E+00 -0.52072100761E+03  0.52072100761E+03  0.00000000000E+00 0. -1.
          6    1    1    2  501    0 -0.16346386469E+03  0.14361970420E+03 -0.22097015886E+03  0.35462496472E+03  0.17200000000E+03 0. -1.
         -6    1    1    2    0  503  0.16346386469E+03 -0.14361970420E+03 -0.15035226645E+03  0.31549462519E+03  0.17200000000E+03 0. -1.
</event>
<event>
 4    1  0.5701701E+000  0.2003317E+03  0.7818608E-02  0.1149459E+00
         21   -1    0    0  501  502  0.00000000000E+00  0.00000000000E+00  0.13579252114E+03  0.13579252114E+03  0.00000000000E+00 0.  1.
         21   -1    0    0  502  503 -0.00000000000E+00 -0.00000000000E+00 -0.90018278391E+03  0.90018278391E+03  0.00000000000E+00 0.  1.
          6    1    1    2  501    0 -0.10138196946E+03 -0.16446776595E+02  0.42328332022E+02  0.20475470174E+03  0.17200000000E+03 0.  1.
         -6    1    1    2    0  503  0.10138196946E+03  0.16446776595E+02 -0.80671859479E+03  0.83122060331E+03  0.17200000000E+03 0.  1.
</event>
<event>
 4    1  0.5701701E+000  0.1959960E+03  0.7818608E-02  0.1153162E+00
         21   -1    0    0  503  502  0.00000000000E+00  0.00000000000E+00  0.13365464814E+04  0.13365464814E+04  0.00000000000E+00 0.  1.
         21   -1    0    0  501  503 -0.00000000000E+00 -0.00000000000E+00 -0.32867855235E+02  0.32867855235E+02  0.00000000000E+00 0.  1.
          6    1    1    2  501    0 -0.93412502263E+02  0.10224137372E+02  0.40923448889E+03  0.45374805285E+03  0.17200000000E+03 0.  1.
         -6    1    1    2    0  502  0.93412502263E+02 -0.10224137372E+02  0.89444413729E+03  0.91566628380E+03  0.17200000000E+03 0.  1.
</event>
<event>
 4    1  0.5701701E+000  0.2751086E+03  0.7818608E-02  0.1098391E+00
         21   -1    0    0  501  502  0.00000000000E+00  0.00000000000E+00  0.87334101518E+02  0.87334101518E+02  0.00000000000E+00 0.  1.
         21   -1    0    0  502  503 -0.00000000000E+00 -0.00000000000E+00 -0.99004306915E+03  0.99004306915E+03  0.00000000000E+00 0. -1.
          6    1    1    2  501    0  0.21447805083E+03 -0.99951498448E+01 -0.26114864598E+03  0.37931959165E+03  0.17200000000E+03 0. -1.
         -6    1    1    2    0  503 -0.21447805083E+03  0.99951498448E+01 -0.64156032165E+03  0.69805757902E+03  0.17200000000E+03 0. -1.
</event>
<event>
 4    1  0.5701701E+000  0.1862023E+03  0.7818608E-02  0.1161932E+00
         21   -1    0    0  501  502  0.00000000000E+00  0.00000000000E+00  0.26177199839E+03  0.26177199839E+03  0.00000000000E+00 0. -1.
         21   -1    0    0  502  503 -0.00000000000E+00 -0.00000000000E+00 -0.23045871095E+03  0.23045871095E+03  0.00000000000E+00 0. -1.
          6    1    1    2  501    0  0.71322205084E+02 -0.65290336004E+00  0.17615774673E+03  0.25632564241E+03  0.17200000000E+03 0. -1.
         -6    1    1    2    0  503 -0.71322205084E+02  0.65290336004E+00 -0.14484445929E+03  0.23590506694E+03  0.17200000000E+03 0. -1.
</event>
<event>
 4    1  0.5701701E+000  0.2104709E+03  0.7818608E-02  0.1141194E+00
         21   -1    0    0  501  502  0.00000000000E+00  0.00000000000E+00  0.37008125235E+03  0.37008125235E+03  0.00000000000E+00 0. -1.
         21   -1    0    0  502  503 -0.00000000000E+00 -0.00000000000E+00 -0.25010070580E+03  0.25010070580E+03  0.00000000000E+00 0. -1.
          6    1    1    2  501    0 -0.21764433179E+02 -0.11933272447E+03  0.28390102981E+03  0.35340880636E+03  0.17200000000E+03 0. -1.
         -6    1    1    2    0  503  0.21764433179E+02  0.11933272447E+03 -0.16392048326E+03  0.26677315179E+03  0.17200000000E+03 0. -1.
</event>
<event>
 4    1  0.5701701E+000  0.2116618E+03  0.7818608E-02  0.1140257E+00
         21   -1    0    0  501  502  0.00000000000E+00  0.00000000000E+00  0.18616309336E+03  0.18616309336E+03  0.00000000000E+00 0.  1.
         21   -1    0    0  502  503 -0.00000000000E+00 -0.00000000000E+00 -0.24232071779E+03  0.24232071779E+03  0.00000000000E+00 0. -1.
          6    1    1    2  501    0 -0.12064135859E+03 -0.25737113895E+02 -0.10306260991E+02  0.21191261277E+03  0.17200000000E+03 0.  1.
         -6    1    1    2    0  503  0.12064135859E+03  0.25737113895E+02 -0.45851363440E+02  0.21657119837E+03  0.17200000000E+03 0.  1.
</event>
<event>
 4    1  0.5701701E+000  0.2611166E+03  0.7818608E-02  0.1106474E+00
         21   -1    0    0  501  502  0.00000000000E+00  0.00000000000E+00  0.40612703666E+03  0.40612703666E+03  0.00000000000E+00 0. -1.
         21   -1    0    0  502  503 -0.00000000000E+00 -0.00000000000E+00 -0.74261799126E+03  0.74261799126E+03  0.00000000000E+00 0. -1.
          6    1    1    2  501    0 -0.16426809479E+03  0.10776756131E+03  0.33704918223E+03  0.42636135552E+03  0.17200000000E+03 0. -1.
         -6    1    1    2    0  503  0.16426809479E+03 -0.10776756131E+03 -0.67354013683E+03  0.72238367240E+03  0.17200000000E+03 0. -1.
</event>
<event>
 4    1  0.5701701E+000  0.1953906E+03  0.7818608E-02  0.1153687E+00
         21   -1    0    0  503  502  0.00000000000E+00  0.00000000000E+00  0.61089040180E+02  0.61089040180E+02  0.00000000000E+00 0.  1.
         21   -1    0    0  501  503 -0.00000000000E+00 -0.00000000000E+00 -0.68373623548E+03  0.68373623548E+03  0.00000000000E+00 0. -1.
          6    1    1    2  501    0 -0.92014097367E+02  0.11263908868E+02 -0.20212286557E+03  0.28112474552E+03  0.17200000000E+03 0.  1.
         -6    1    1    2    0  502  0.92014097367E+02 -0.11263908868E+02 -0.42052432973E+03  0.46370053014E+03  0.17200000000E+03 0. -1.
</event>
<event>
 4    1  0.5701701E+000  0.1922570E+03  0.7818608E-02  0.1156441E+00
         21   -1    0    0  503  502  0.00000000000E+00  0.00000000000E+00  0.37593144207E+03  0.37593144207E+03  0.00000000000E+00 0. -1.
         21   -1    0    0  501  503 -0.00000000000E+00 -0.00000000000E+00 -0.10343780769E+03  0.10343780769E+03  0.00000000000E+00 0. -1.
          6    1    1    2  501    0  0.71339537784E+02 -0.47848106839E+02  0.18954445630E+03  0.26998124359E+03  0.17200000000E+03 0. -1.
         -6    1    1    2    0  502 -0.71339537784E+02  0.47848106839E+02  0.82949178079E+02  0.20938800616E+03  0.17200000000E+03 0. -1.
</event>
<event>
 4    1  0.5701701E+000  0.4866728E+03  0.7818608E-02  0.1017317E+00
         21   -1    0    0  501  502  0.00000000000E+00  0.00000000000E+00  0.65031426396E+03  0.65031426396E+03  0.00000000000E+00 0.  1.
         21   -1    0    0  502  503 -0.00000000000E+00 -0.00000000000E+00 -0.38582647858E+03  0.38582647858E+03  0.00000000000E+00 0. -1.
          6    1    1    2  501    0  0.29049333447E+03 -0.35054245536E+03  0.25487311764E+03  0.54937300305E+03  0.17200000000E+03 0.  1.
         -6    1    1    2    0  503 -0.29049333447E+03  0.35054245536E+03  0.96146677397E+01  0.48676773950E+03  0.17200000000E+03 0. -1.
</event>
<event>
 4    1  0.5701701E+000  0.1833646E+03  0.7818608E-02  0.1164586E+00
         21   -1    0    0  501  502  0.00000000000E+00  0.00000000000E+00  0.74286886377E+02  0.74286886377E+02  0.00000000000E+00 0. -1.
         21   -1    0    0  502  503 -0.00000000000E+00 -0.00000000000E+00 -0.47976671404E+03  0.47976671404E+03  0.00000000000E+00 0. -1.
          6    1    1    2  501    0 -0.13122571052E+02  0.62180238686E+02 -0.13682422628E+03  0.22878691582E+03  0.17200000000E+03 0. -1.
         -6    1    1    2    0  503  0.13122571052E+02 -0.62180238686E+02 -0.26865560138E+03  0.32526668459E+03  0.17200000000E+03 0. -1.
</event>
<event>
 4    1  0.5701701E+000  0.1846693E+03  0.7818608E-02  0.1163359E+00
         21   -1    0    0  501  502  0.00000000000E+00  0.00000000000E+00  0.17411625916E+03  0.17411625916E+03  0.00000000000E+00 0. -1.
         21   -1    0    0  502  503 -0.00000000000E+00 -0.00000000000E+00 -0.22022314839E+03  0.22022314839E+03  0.00000000000E+00 0.  1.
          6    1    1    2  501    0 -0.45261519345E+02  0.49700518874E+02  0.42524559622E+02  0.18950220284E+03  0.17200000000E+03 0. -1.
         -6    1    1    2    0  503  0.45261519345E+02 -0.49700518874E+02 -0.88631448854E+02  0.20483720472E+03  0.17200000000E+03 0.  1.
</event>
<event>
 4    1  0.5701701E+000  0.1880759E+03  0.7818608E-02  0.1160208E+00
         21   -1    0    0  501  502  0.00000000000E+00  0.00000000000E+00  0.65012727741E+03  0.65012727741E+03  0.00000000000E+00 0. -1.
         21   -1    0    0  502  503 -0.00000000000E+00 -0.00000000000E+00 -0.54616075795E+02  0.54616075795E+02  0.00000000000E+00 0.  1.
          6    1    1    2  501    0 -0.17481659509E+02 -0.74046845793E+02  0.27603968810E+03  0.33402163582E+03  0.17200000000E+03 0.  1.
         -6    1    1    2    0  503  0.17481659509E+02  0.74046845793E+02  0.31947151351E+03  0.37072171738E+03  0.17200000000E+03 0. -1.
</event>
<event>
 4    1  0.5701701E+000  0.1948075E+03  0.7818608E-02  0.1154195E+00
         21   -1    0    0  503  502  0.00000000000E+00  0.00000000000E+00  0.19021314740E+03  0.19021314740E+03  0.00000000000E+00 0. -1.
         21   -1    0    0  501  503 -0.00000000000E+00 -0.00000000000E+00 -0.94198674587E+03  0.94198674587E+03  0.00000000000E+00 0.  1.
          6    1    1    2  501    0  0.22962049287E+02 -0.88536471293E+02 -0.87847387887E+03  0.89981460219E+03  0.17200000000E+03 0.  1.
         -6    1    1    2    0  502 -0.22962049287E+02  0.88536471293E+02  0.12670028040E+03  0.23238529108E+03  0.17200000000E+03 0. -1.
</event>
<event>
 4    1  0.5701701E+000  0.2763423E+03  0.7818608E-02  0.1097704E+00
         21   -1    0    0  501  502  0.00000000000E+00  0.00000000000E+00  0.51060772267E+02  0.51060772267E+02  0.00000000000E+00 0. -1.
         21   -1    0    0  502  503 -0.00000000000E+00 -0.00000000000E+00 -0.17783276778E+04  0.17783276778E+04  0.00000000000E+00 0. -1.
          6    1    1    2  501    0 -0.79472584177E+02 -0.20115954091E+03 -0.49889979480E+03  0.57032101293E+03  0.17200000000E+03 0. -1.
         -6    1    1    2    0  503  0.79472584177E+02  0.20115954091E+03 -0.12283671107E+04  0.12590674371E+04  0.17200000000E+03 0. -1.
</event>
<event>
 4    1  0.5701701E+000  0.1740805E+03  0.7818608E-02  0.1173658E+00
         21   -1    0    0  503  502  0.00000000000E+00  0.00000000000E+00  0.27879227939E+04  0.27879227939E+04  0.00000000000E+00 0.  1.
         21   -1    0    0  501  503 -0.00000000000E+00 -0.00000000000E+00 -0.23915673566E+02  0.23915673566E+02  0.00000000000E+00 0.  1.
          6    1    1    2  501    0 -0.23260688864E+00 -0.26832371707E+02  0.34362326053E+03  0.38520251226E+03  0.17200000000E+03 0.  1.
         -6    1    1    2    0  502  0.23260688864E+00  0.26832371707E+02  0.24203838598E+04  0.24266359552E+04  0.17200000000E+03 0.  1.
</event>
<event>
 4    1  0.5701701E+000  0.2183565E+03  0.7818608E-02  0.1135114E+00
         21   -1    0    0  501  502  0.00000000000E+00  0.00000000000E+00  0.15488543664E+03  0.15488543664E+03  0.00000000000E+00 0. -1.
         21   -1    0    0  502  503 -0.00000000000E+00 -0.00000000000E+00 -0.31396548976E+03  0.31396548976E+03  0.00000000000E+00 0. -1.
          6    1    1    2  501    0 -0.11574476936E+03 -0.68547260060E+02 -0.46789724096E+02  0.22331336005E+03  0.17200000000E+03 0. -1.
         -6    1    1    2    0  503  0.11574476936E+03  0.68547260060E+02 -0.11229032902E+03  0.24553756635E+03  0.17200000000E+03 0. -1.
</event>
<event>
 4    1  0.5701701E+000  0.2300279E+03  0.7818608E-02  0.1126620E+00
         21   -1    0    0  503  502  0.00000000000E+00  0.00000000000E+00  0.45410483274E+02  0.45410483274E+02  0.00000000000E+00 0.  1.
         21   -1    0    0  501  503 -0.00000000000E+00 -0.00000000000E+00 -0.12231094236E+04  0.12231094236E+04  0.00000000000E+00 0.  1.
          6    1    1    2  501    0 -0.14650412252E+03 -0.43190169197E+02 -0.72684453171E+03  0.76237511889E+03  0.17200000000E+03 0.  1.
         -6    1    1    2    0  502  0.14650412252E+03  0.43190169197E+02 -0.45085440860E+03  0.50614478797E+03  0.17200000000E+03 0.  1.
</event>
<event>
 4    1  0.5701701E+000  0.1781283E+03  0.7818608E-02  0.1169627E+00
         21   -1    0    0  501  502  0.00000000000E+00  0.00000000000E+00  0.30120395884E+03  0.30120395884E+03  0.00000000000E+00 0. -1.
         21   -1    0    0  502  503 -0.00000000000E+00 -0.00000000000E+00 -0.10899449141E+03  0.10899449141E+03  0.00000000000E+00 0. -1.
          6    1    1    2  501    0 -0.31083113581E+02  0.34344347554E+02  0.13364554841E+03  0.22268997905E+03  0.17200000000E+03 0. -1.
         -6    1    1    2    0  503  0.31083113581E+02 -0.34344347554E+02  0.58563919021E+02  0.18750847120E+03  0.17200000000E+03 0. -1.
</event>
<event>
 4    1  0.5701701E+000  0.1773245E+03  0.7818608E-02  0.1170418E+00
         21   -1    0    0  503  502  0.00000000000E+00  0.00000000000E+00  0.33406772954E+03  0.33406772954E+03  0.00000000000E+00 0.  1.
         21   -1    0    0  501  503 -0.00000000000E+00 -0.00000000000E+00 -0.24749195894E+03  0.24749195894E+03  0.00000000000E+00 0.  1.
          6    1    1    2  501    0  0.27849184425E+02 -0.32930093503E+02 -0.18561450148E+03  0.25670354748E+03  0.17200000000E+03 0.  1.
         -6    1    1    2    0  502 -0.27849184425E+02  0.32930093503E+02  0.27219027207E+03  0.32485614099E+03  0.17200000000E+03 0.  1.
</event>
<event>
 4    1  0.5701701E+000  0.2344449E+03  0.7818608E-02  0.1123550E+00
         21   -1    0    0  501  502  0.00000000000E+00  0.00000000000E+00  0.16279825873E+04  0.16279825873E+04  0.00000000000E+00 0. -1.
         21   -1    0    0  502  503 -0.00000000000E+00 -0.00000000000E+00 -0.12609454247E+03  0.12609454247E+03  0.00000000000E+00 0. -1.
          6    1    1    2  501    0  0.14587524492E+03 -0.64037703311E+02  0.15014380990E+04  0.15196317908E+04  0.17200000000E+03 0. -1.
         -6    1    1    2    0  503 -0.14587524492E+03  0.64037703311E+02  0.44994587372E+00  0.23444533899E+03  0.17200000000E+03 0. -1.
</event>
<event>
 4    1  0.5701701E+000  0.2278804E+03  0.7818608E-02  0.1128141E+00
         21   -1    0    0  501  502  0.00000000000E+00  0.00000000000E+00  0.12522363201E+04  0.12522363201E+04  0.00000000000E+00 0. -1.
         21   -1    0    0  502  503 -0.00000000000E+00 -0.00000000000E+00 -0.64286222321E+02  0.64286222321E+02  0.00000000000E+00 0. -1.
          6    1    1    2  501    0  0.69150959190E+02  0.13252773894E+03  0.98613855382E+03  0.10121258341E+04  0.17200000000E+03 0. -1.
         -6    1    1    2    0  503 -0.69150959190E+02 -0.13252773894E+03  0.20181154391E+03  0.30439670826E+03  0.17200000000E+03 0. -1.
</event>
<event>
 4    1  0.5701701E+000  0.2080761E+03  0.7818608E-02  0.1143099E+00
         21   -1    0    0  501  502  0.00000000000E+00  0.00000000000E+00  0.41090133040E+03  0.41090133040E+03  0.00000000000E+00 0.  1.
         21   -1    0    0  502  503 -0.00000000000E+00 -0.00000000000E+00 -0.14895041783E+03  0.14895041783E+03  0.00000000000E+00 0.  1.
          6    1    1    2  501    0 -0.66605598204E+02  0.96308605656E+02  0.28239441064E+03  0.35077379662E+03  0.17200000000E+03 0.  1.
         -6    1    1    2    0  503  0.66605598204E+02 -0.96308605656E+02 -0.20443498071E+02  0.20907795161E+03  0.17200000000E+03 0.  1.
</event>
<event>
 4    1  0.5701701E+000  0.1829183E+03  0.7818608E-02  0.1165008E+00
         21   -1    0    0  501  502  0.00000000000E+00  0.00000000000E+00  0.10435294835E+04  0.10435294835E+04  0.00000000000E+00 0.  1.
         21   -1    0    0  502  503 -0.00000000000E+00 -0.00000000000E+00 -0.37953091574E+02  0.37953091574E+02  0.00000000000E+00 0.  1.
          6    1    1    2  501    0  0.53012301153E+02  0.32631264091E+02  0.71580419333E+03  0.73880629847E+03  0.17200000000E+03 0.  1.
         -6    1    1    2    0  503 -0.53012301153E+02 -0.32631264091E+02  0.28977219861E+03  0.34267627662E+03  0.17200000000E+03 0.  1.
</event>
<event>
 4    1  0.5701701E+000  0.1724928E+03  0.7818608E-02  0.1175273E+00
         21   -1    0    0  503  502  0.00000000000E+00  0.00000000000E+00  0.40450474912E+03  0.40450474912E+03  0.00000000000E+00 0. -1.
         21   -1    0    0  501  503 -0.00000000000E+00 -0.00000000000E+00 -0.34144810462E+03  0.34144810462E+03  0.00000000000E+00 0. -1.
          6    1    1    2  501    0 -0.10167692649E+02  0.81471055170E+01 -0.29884043986E+03  0.34504980191E+03  0.17200000000E+03 0. -1.
         -6    1    1    2    0  502  0.10167692649E+02 -0.81471055170E+01  0.36189708436E+03  0.40090305184E+03  0.17200000000E+03 0. -1.
</event>
<event>
 4    1  0.5701701E+000  0.2563529E+03  0.7818608E-02  0.1109355E+00
         21   -1    0    0  503  502  0.00000000000E+00  0.00000000000E+00  0.43346082863E+03  0.43346082863E+03  0.00000000000E+00 0.  1.
         21   -1    0    0  501  503 -0.00000000000E+00 -0.00000000000E+00 -0.15185623855E+03  0.15185623855E+03  0.00000000000E+00 0.  1.
          6    1    1    2  501    0  0.57673270128E+02  0.18112586966E+03  0.12900591757E+03  0.28698312409E+03  0.17200000000E+03 0.  1.
         -6    1    1    2    0  502 -0.57673270128E+02 -0.18112586966E+03  0.15259867250E+03  0.29833394308E+03  0.17200000000E+03 0.  1.
</event>
<event>
 4    1  0.5701701E+000  0.2157795E+03  0.7818608E-02  0.1137069E+00
         21   -1    0    0  501  502  0.00000000000E+00  0.00000000000E+00  0.78853175770E+02  0.78853175770E+02  0.00000000000E+00 0. -1.
         21   -1    0    0  502  503 -0.00000000000E+00 -0.00000000000E+00 -0.71587733698E+03  0.71587733698E+03  0.00000000000E+00 0.  1.
          6    1    1    2  501    0 -0.83481718411E+02  0.10003802381E+03 -0.15219993795E+03  0.26405610129E+03  0.17200000000E+03 0. -1.
         -6    1    1    2    0  503  0.83481718411E+02 -0.10003802381E+03 -0.48482422326E+03  0.53067441146E+03  0.17200000000E+03 0.  1.
</event>
<event>
 4    1  0.5701701E+000  0.1950260E+03  0.7818608E-02  0.1154005E+00
         21   -1    0    0  503  502  0.00000000000E+00  0.00000000000E+00  0.28711885208E+03  0.28711885208E+03  0.00000000000E+00 0. -1.
         21   -1    0    0  501  503 -0.00000000000E+00 -0.00000000000E+00 -0.22294187511E+03  0.22294187511E+03  0.00000000000E+00 0. -1.
          6    1    1    2  501    0  0.91928489496E+02 -0.53390603358E+00 -0.13037235317E+03  0.23458917858E+03  0.17200000000E+03 0. -1.
         -6    1    1    2    0  502 -0.91928489496E+02  0.53390603358E+00  0.19454933014E+03  0.27547154861E+03  0.17200000000E+03 0. -1.
</event>
<event>
 4    1  0.5701701E+000  0.2239241E+03  0.7818608E-02  0.1130991E+00
         21   -1    0    0  503  502  0.00000000000E+00  0.00000000000E+00  0.42320763067E+03  0.42320763067E+03  0.00000000000E+00 0. -1.
         21   -1    0    0  501  503 -0.00000000000E+00 -0.00000000000E+00 -0.14827704349E+03  0.14827704349E+03  0.00000000000E+00 0. -1.
          6    1    1    2  501    0 -0.69668634858E+02 -0.12531665270E+03  0.93743777336E+01  0.22412019339E+03  0.17200000000E+03 0. -1.
         -6    1    1    2    0  502  0.69668634858E+02  0.12531665270E+03  0.26555620944E+03  0.34736448077E+03  0.17200000000E+03 0. -1.
</event>
<event>
 4    1  0.5701701E+000  0.2602113E+03  0.7818608E-02  0.1107016E+00
         21   -1    0    0  503  502  0.00000000000E+00  0.00000000000E+00  0.59015531087E+03  0.59015531087E+03  0.00000000000E+00 0.  1.
         21   -1    0    0  501  503 -0.00000000000E+00 -0.00000000000E+00 -0.25462156803E+03  0.25462156803E+03  0.00000000000E+00 0. -1.
          6    1    1    2  501    0  0.29913150534E+02 -0.19295367841E+03 -0.14531398737E+03  0.29803703379E+03  0.17200000000E+03 0. -1.
         -6    1    1    2    0  502 -0.29913150534E+02  0.19295367841E+03  0.48084773020E+03  0.54673984511E+03  0.17200000000E+03 0.  1.
</event>
<event>
 4    1  0.5701701E+000  0.2072720E+03  0.7818608E-02  0.1143745E+00
         21   -1    0    0  503  502  0.00000000000E+00  0.00000000000E+00  0.94070364166E+02  0.94070364166E+02  0.00000000000E+00 0. -1.
         21   -1    0    0  501  503 -0.00000000000E+00 -0.00000000000E+00 -0.61837401410E+03  0.61837401410E+03  0.00000000000E+00 0. -1.
          6    1    1    2  501    0  0.92332433257E+02 -0.69659328812E+02 -0.44429748111E+03  0.49026722514E+03  0.17200000000E+03 0. -1.
         -6    1    1    2    0  502 -0.92332433257E+02  0.69659328812E+02 -0.80006168818E+02  0.22217715312E+03  0.17200000000E+03 0. -1.
</event>
<event>
 4    1  0.5701701E+000  0.1766348E+03  0.7818608E-02  0.1171100E+00
         21   -1    0    0  501  502  0.00000000000E+00  0.00000000000E+00  0.16748475575E+03  0.16748475575E+03  0.00000000000E+00 0. -1.
         21   -1    0    0  502  503 -0.00000000000E+00 -0.00000000000E+00 -0.40977538921E+03  0.40977538921E+03  0.00000000000E+00 0. -1.
          6    1    1    2  501    0  0.80433257563E+01 -0.39384612083E+02  0.92011088502E+02  0.19916295631E+03  0.17200000000E+03 0. -1.
         -6    1    1    2    0  503 -0.80433257563E+01  0.39384612083E+02 -0.33430172196E+03  0.37809718865E+03  0.17200000000E+03 0. -1.
</event>
<event>
 4    1  0.5701701E+000  0.2586439E+03  0.7818608E-02  0.1107961E+00
         21   -1    0    0  503  502  0.00000000000E+00  0.00000000000E+00  0.26574001094E+03  0.26574001094E+03  0.00000000000E+00 0. -1.
         21   -1    0    0  501  503 -0.00000000000E+00 -0.00000000000E+00 -0.49224474464E+03  0.49224474464E+03  0.00000000000E+00 0.  1.
          6    1    1    2  501    0 -0.68322028397E+02  0.18067860492E+03 -0.37816596081E+03  0.45815516122E+03  0.17200000000E+03 0.  1.
         -6    1    1    2    0  502  0.68322028397E+02 -0.18067860492E+03  0.15166122712E+03  0.29982959435E+03  0.17200000000E+03 0. -1.
</event>
<event>
 4    1  0.5701701E+000  0.2654396E+03  0.7818608E-02  0.1103918E+00
         21   -1    0    0  503  502  0.00000000000E+00  0.00000000000E+00  0.45581596965E+03  0.45581596965E+03  0.00000000000E+00 0. -1.
         21   -1    0    0  501  503 -0.00000000000E+00 -0.00000000000E+00 -0.20437737612E+03  0.20437737612E+03  0.00000000000E+00 0.  1.
          6    1    1    2  501    0 -0.12544036063E+03  0.15855256418E+03 -0.37227377640E+02  0.26803745509E+03  0.17200000000E+03 0. -1.
         -6    1    1    2    0  502  0.12544036063E+03 -0.15855256418E+03  0.28866597117E+03  0.39215589068E+03  0.17200000000E+03 0. -1.
</event>
<event>
 4    1  0.5701701E+000  0.2303430E+03  0.7818608E-02  0.1126399E+00
         21   -1    0    0  503  502  0.00000000000E+00  0.00000000000E+00  0.62848513719E+03  0.62848513719E+03  0.00000000000E+00 0. -1.
         21   -1    0    0  501  503 -0.00000000000E+00 -0.00000000000E+00 -0.97296451062E+02  0.97296451062E+02  0.00000000000E+00 0. -1.
          6    1    1    2  501    0 -0.31038554607E+02  0.15003506888E+03  0.39760025489E+03  0.45950394607E+03  0.17200000000E+03 0. -1.
         -6    1    1    2    0  502  0.31038554607E+02 -0.15003506888E+03  0.13358843125E+03  0.26627764219E+03  0.17200000000E+03 0. -1.
</event>
<event>
 4    1  0.5701701E+000  0.2034707E+03  0.7818608E-02  0.1146843E+00
         21   -1    0    0  501  502  0.00000000000E+00  0.00000000000E+00  0.55527323407E+03  0.55527323407E+03  0.00000000000E+00 0. -1.
         21   -1    0    0  502  503 -0.00000000000E+00 -0.00000000000E+00 -0.14827605105E+03  0.14827605105E+03  0.00000000000E+00 0. -1.
          6    1    1    2  501    0 -0.33955775077E+02  0.10326341213E+03  0.45153448963E+03  0.49526126668E+03  0.17200000000E+03 0. -1.
         -6    1    1    2    0  503  0.33955775077E+02 -0.10326341213E+03 -0.44537306611E+02  0.20828801844E+03  0.17200000000E+03 0. -1.
</event>
<event>
 4    1  0.5701701E+000  0.2789596E+03  0.7818608E-02  0.1096259E+00
         21   -1    0    0  501  502  0.00000000000E+00  0.00000000000E+00  0.19361570375E+03  0.19361570375E+03  0.00000000000E+00 0.  1.
         21   -1    0    0  502  503 -0.00000000000E+00 -0.00000000000E+00 -0.56543647024E+03  0.56543647024E+03  0.00000000000E+00 0.  1.
          6    1    1    2  501    0  0.66017317488E+02  0.20946641646E+03  0.18182303704E+02  0.27955153729E+03  0.17200000000E+03 0.  1.
         -6    1    1    2    0  503 -0.66017317488E+02 -0.20946641646E+03 -0.39000307020E+03  0.47950063670E+03  0.17200000000E+03 0.  1.
</event>
<event>
 4    1  0.5701701E+000  0.1823640E+03  0.7818608E-02  0.1165535E+00
         21   -1    0    0  503  502  0.00000000000E+00  0.00000000000E+00  0.47750580268E+03  0.47750580268E+03  0.00000000000E+00 0. -1.
         21   -1    0    0  501  503 -0.00000000000E+00 -0.00000000000E+00 -0.13293758824E+03  0.13293758824E+03  0.00000000000E+00 0. -1.
          6    1    1    2  501    0  0.55957714900E+02 -0.23267173740E+02 -0.38317967500E+02  0.18634616675E+03  0.17200000000E+03 0. -1.
         -6    1    1    2    0  502 -0.55957714900E+02  0.23267173740E+02  0.38288618194E+03  0.42409722417E+03  0.17200000000E+03 0. -1.
</event>
<event>
 4    1  0.5701701E+000  0.1827247E+03  0.7818608E-02  0.1165192E+00
         21   -1    0    0  501  502  0.00000000000E+00  0.00000000000E+00  0.48257595630E+02  0.48257595630E+02  0.00000000000E+00 0.  1.
         21   -1    0    0  502  503 -0.00000000000E+00 -0.00000000000E+00 -0.70488863341E+03  0.70488863341E+03  0.00000000000E+00 0. -1.
          6    1    1    2  501    0  0.53952528034E+02 -0.29890258440E+02 -0.27715192142E+03  0.33196609823E+03  0.17200000000E+03 0.  1.
         -6    1    1    2    0  503 -0.53952528034E+02  0.29890258440E+02 -0.37947911636E+03  0.42118013081E+03  0.17200000000E+03 0. -1.
</event>
<event>
 4    1  0.5701701E+000  0.1994468E+03  0.7818608E-02  0.1150207E+00
         21   -1    0    0  501  502  0.00000000000E+00  0.00000000000E+00  0.35994526065E+03  0.35994526065E+03  0.00000000000E+00 0.  1.
         21   -1    0    0  502  503 -0.00000000000E+00 -0.00000000000E+00 -0.11889522034E+03  0.11889522034E+03  0.00000000000E+00 0. -1.
          6    1    1    2  501    0 -0.82114000001E+02  0.58756457387E+02  0.18409168604E+03  0.27141993138E+03  0.17200000000E+03 0.  1.
         -6    1    1    2    0  503  0.82114000001E+02 -0.58756457387E+02  0.56958354270E+02  0.20742054961E+03  0.17200000000E+03 0. -1.
</event>
<event>
 4    1  0.5701701E+000  0.1984501E+03  0.7818608E-02  0.1151053E+00
         21   -1    0    0  501  502  0.00000000000E+00  0.00000000000E+00  0.34576351629E+03  0.34576351629E+03  0.00000000000E+00 0. -1.
         21   -1    0    0  502  503 -0.00000000000E+00 -0.00000000000E+00 -0.13000412716E+03  0.13000412716E+03  0.00000000000E+00 0.  1.
          6    1    1    2  501    0 -0.36178555707E+02  0.92138810662E+02  0.24154616006E+02  0.19991471631E+03  0.17200000000E+03 0. -1.
         -6    1    1    2    0  503  0.36178555707E+02 -0.92138810662E+02  0.19160477313E+03  0.27585292713E+03  0.17200000000E+03 0. -1.
</event>
<event>
 4    1  0.5701701E+000  0.1803529E+03  0.7818608E-02  0.1167462E+00
         21   -1    0    0  501  502  0.00000000000E+00  0.00000000000E+00  0.20448344559E+03  0.20448344559E+03  0.00000000000E+00 0.  1.
         21   -1    0    0  502  503 -0.00000000000E+00 -0.00000000000E+00 -0.19486189496E+03  0.19486189496E+03  0.00000000000E+00 0. -1.
          6    1    1    2  501    0  0.15312607249E+02  0.52044929581E+02  0.90386075752E+02  0.20173446241E+03  0.17200000000E+03 0.  1.
         -6    1    1    2    0  503 -0.15312607249E+02 -0.52044929581E+02 -0.80764525123E+02  0.19761087813E+03  0.17200000000E+03 0. -1.
</event>
<event>
 4    1  0.5701701E+000  0.1986359E+03  0.7818608E-02  0.1150895E+00
         21   -1    0    0  503  502  0.00000000000E+00  0.00000000000E+00  0.24203324714E+04  0.24203324714E+04  0.00000000000E+00 0.  1.
         21   -1    0    0  501  503 -0.00000000000E+00 -0.00000000000E+00 -0.16482503376E+02  0.16482503376E+02  0.00000000000E+00 0.  1.
          6    1    1    2  501    0  0.21319797527E+02 -0.97044693011E+02  0.10744131928E+04  0.10926206638E+04  0.17200000000E+03 0.  1.
         -6    1    1    2    0  502 -0.21319797527E+02  0.97044693011E+02  0.13294367753E+04  0.13441943110E+04  0.17200000000E+03 0.  1.
</event>
<event>
 4    1  0.5701701E+000  0.3211254E+03  0.7818608E-02  0.1075133E+00
         21   -1    0    0  501  502  0.00000000000E+00  0.00000000000E+00  0.16217235621E+03  0.16217235621E+03  0.00000000000E+00 0.  1.
         21   -1    0    0  502  503 -0.00000000000E+00 -0.00000000000E+00 -0.84241483271E+03  0.84241483271E+03  0.00000000000E+00 0.  1.
          6    1    1    2  501    0 -0.27109694753E+03  0.66290716037E+01 -0.91409914607E+02  0.33388212297E+03  0.17200000000E+03 0.  1.
         -6    1    1    2    0  503  0.27109694753E+03 -0.66290716037E+01 -0.58883256189E+03  0.67070506595E+03  0.17200000000E+03 0.  1.
</event>
<event>
 4    1  0.5701701E+000  0.2061424E+03  0.7818608E-02  0.1144658E+00
         21   -1    0    0  501  502  0.00000000000E+00  0.00000000000E+00  0.11861774744E+04  0.11861774744E+04  0.00000000000E+00 0. -1.
         21   -1    0    0  502  503 -0.00000000000E+00 -0.00000000000E+00 -0.39596376008E+02  0.39596376008E+02  0.00000000000E+00 0. -1.
          6    1    1    2  501    0 -0.10640209748E+03  0.39865622165E+02  0.76244172720E+03  0.78981773946E+03  0.17200000000E+03 0. -1.
         -6    1    1    2    0  503  0.10640209748E+03 -0.39865622165E+02  0.38413937119E+03  0.43595611095E+03  0.17200000000E+03 0. -1.
</event>
<event>
 4    1  0.5701701E+000  0.1796466E+03  0.7818608E-02  0.1168146E+00
         21   -1    0    0  501  502  0.00000000000E+00  0.00000000000E+00  0.33465243424E+03  0.33465243424E+03  0.00000000000E+00 0. -1.
         21   -1    0    0  502  503 -0.00000000000E+00 -0.00000000000E+00 -0.32136464838E+03  0.32136464838E+03  0.00000000000E+00 0. -1.
          6    1    1    2  501    0  0.41172007046E+02  0.31523795899E+02  0.28105867590E+03  0.33356687961E+03  0.17200000000E+03 0. -1.
         -6    1    1    2    0  503 -0.41172007046E+02 -0.31523795899E+02 -0.26777089004E+03  0.32245020301E+03  0.17200000000E+03 0. -1.
</event>
<event>
 4    1  0.5701701E+000  0.1858193E+03  0.7818608E-02  0.1162287E+00
         21   -1    0    0  501  502  0.00000000000E+00  0.00000000000E+00  0.69886981582E+02  0.69886981582E+02  0.00000000000E+00 0. -1.
         21   -1    0    0  502  503 -0.00000000000E+00 -0.00000000000E+00 -0.91845148848E+03  0.91845148848E+03  0.00000000000E+00 0. -1.
          6    1    1    2  501    0  0.61523522390E+02 -0.34054136670E+02 -0.88368709530E+02  0.20576165060E+03  0.17200000000E+03 0. -1.
         -6    1    1    2    0  503 -0.61523522390E+02  0.34054136670E+02 -0.76019579737E+03  0.78257681947E+03  0.17200000000E+03 0. -1.
</event>
<event>
 4    1  0.5701701E+000  0.2398534E+03  0.7818608E-02  0.1119890E+00
         21   -1    0    0  501  502  0.00000000000E+00  0.00000000000E+00  0.34878871679E+03  0.34878871679E+03  0.00000000000E+00 0.  1.
         21   -1    0    0  502  503 -0.00000000000E+00 -0.00000000000E+00 -0.17348733002E+03  0.17348733002E+03  0.00000000000E+00 0. -1.
          6    1    1    2  501    0 -0.16642568846E+03  0.15753307526E+02  0.14560924929E+03  0.28059174962E+03  0.17200000000E+03 0.  1.
         -6    1    1    2    0  503  0.16642568846E+03 -0.15753307526E+02  0.29692137476E+02  0.24168429718E+03  0.17200000000E+03 0. -1.
</event>
<event>
 4    1  0.5701701E+000  0.2166750E+03  0.7818608E-02  0.1136387E+00
         21   -1    0    0  503  502  0.00000000000E+00  0.00000000000E+00  0.21239896866E+03  0.21239896866E+03  0.00000000000E+00 0.  1.
         21   -1    0    0  501  503 -0.00000000000E+00 -0.00000000000E+00 -0.49281617635E+03  0.49281617635E+03  0.00000000000E+00 0.  1.
          6    1    1    2  501    0 -0.13159485450E+03 -0.68431688913E+01 -0.40206140977E+03  0.45672903555E+03  0.17200000000E+03 0.  1.
         -6    1    1    2    0  502  0.13159485450E+03  0.68431688913E+01  0.12164420208E+03  0.24848610945E+03  0.17200000000E+03 0.  1.
</event>
<event>
 4    1  0.5701701E+000  0.1760590E+03  0.7818608E-02  0.1171673E+00
         21   -1    0    0  501  502  0.00000000000E+00  0.00000000000E+00  0.52244327939E+03  0.52244327939E+03  0.00000000000E+00 0. -1.
         21   -1    0    0  502  503 -0.00000000000E+00 -0.00000000000E+00 -0.88992921204E+02  0.88992921204E+02  0.00000000000E+00 0. -1.
          6    1    1    2  501    0 -0.30278327533E+02 -0.22270692731E+02  0.39322633827E+03  0.43084070605E+03  0.17200000000E+03 0. -1.
         -6    1    1    2    0  503  0.30278327533E+02  0.22270692731E+02  0.40224019910E+02  0.18059549455E+03  0.17200000000E+03 0. -1.
</event>
<event>
 4    1  0.5701701E+000  0.2108549E+03  0.7818608E-02  0.1140891E+00
         21   -1    0    0  503  502  0.00000000000E+00  0.00000000000E+00  0.11834249661E+03  0.11834249661E+03  0.00000000000E+00 0. -1.
         21   -1    0    0  501  503 -0.00000000000E+00 -0.00000000000E+00 -0.50536774418E+03  0.50536774418E+03  0.00000000000E+00 0.  1.
          6    1    1    2  501    0 -0.54518254869E+02  0.10910341165E+03 -0.35148678564E+03  0.40988139142E+03  0.17200000000E+03 0.  1.
         -6    1    1    2    0  502  0.54518254869E+02 -0.10910341165E+03 -0.35538461923E+02  0.21382884937E+03  0.17200000000E+03 0. -1.
</event>
<event>
 4    1  0.5701701E+000  0.4663216E+03  0.7818608E-02  0.1022964E+00
         21   -1    0    0  503  502  0.00000000000E+00  0.00000000000E+00  0.20441909535E+03  0.20441909535E+03  0.00000000000E+00 0. -1.
         21   -1    0    0  501  503 -0.00000000000E+00 -0.00000000000E+00 -0.10685612427E+04  0.10685612427E+04  0.00000000000E+00 0.  1.
          6    1    1    2  501    0  0.25807683196E+03  0.34823581513E+03 -0.47467102542E+03  0.66540845840E+03  0.17200000000E+03 0. -1.
         -6    1    1    2    0  502 -0.25807683196E+03 -0.34823581513E+03 -0.38947112196E+03  0.60757187968E+03  0.17200000000E+03 0.  1.
</event>
<event>
 4    1  0.5701701E+000  0.1832420E+03  0.7818608E-02  0.1164702E+00
         21   -1    0    0  503  502  0.00000000000E+00  0.00000000000E+00  0.24399697204E+03  0.24399697204E+03  0.00000000000E+00 0.  1.
         21   -1    0    0  501  503 -0.00000000000E+00 -0.00000000000E+00 -0.20218159986E+03  0.20218159986E+03  0.00000000000E+00 0.  1.
          6    1    1    2  501    0  0.24262260695E+02 -0.58352095862E+02 -0.10516241996E+03  0.21127413225E+03  0.17200000000E+03 0.  1.
         -6    1    1    2    0  502 -0.24262260695E+02  0.58352095862E+02  0.14697779214E+03  0.23490443965E+03  0.17200000000E+03 0.  1.
</event>
<event>
 4    1  0.5701701E+000  0.2079191E+03  0.7818608E-02  0.1143224E+00
         21   -1    0    0  501  502  0.00000000000E+00  0.00000000000E+00  0.15399791663E+03  0.15399791663E+03  0.00000000000E+00 0.  1.
         21   -1    0    0  502  503 -0.00000000000E+00 -0.00000000000E+00 -0.28920999588E+03  0.28920999588E+03  0.00000000000E+00 0.  1.
          6    1    1    2  501    0 -0.44826665074E+02  0.10787463054E+03 -0.29638464239E+02  0.21002096176E+03  0.17200000000E+03 0.  1.
         -6    1    1    2    0  503  0.44826665074E+02 -0.10787463054E+03 -0.10557361501E+03  0.23318695075E+03  0.17200000000E+03 0.  1.
</event>
<event>
 4    1  0.5701701E+000  0.1850550E+03  0.7818608E-02  0.1162999E+00
         21   -1    0    0  503  502  0.00000000000E+00  0.00000000000E+00  0.13082047081E+03  0.13082047081E+03  0.00000000000E+00 0.  1.
         21   -1    0    0  501  503 -0.00000000000E+00 -0.00000000000E+00 -0.35987317729E+03  0.35987317729E+03  0.00000000000E+00 0.  1.
          6    1    1    2  501    0  0.54680276224E+02 -0.40883126108E+02 -0.24262335996E+03  0.30514170054E+03  0.17200000000E+03 0.  1.
         -6    1    1    2    0  502 -0.54680276224E+02  0.40883126108E+02  0.13570653479E+02  0.18555194756E+03  0.17200000000E+03 0.  1.
</event>
<event>
 4    1  0.5701701E+000  0.2545522E+03  0.7818608E-02  0.1110461E+00
         21   -1    0    0  503  502  0.00000000000E+00  0.00000000000E+00  0.56925010829E+03  0.56925010829E+03  0.00000000000E+00 0.  1.
         21   -1    0    0  501  503 -0.00000000000E+00 -0.00000000000E+00 -0.12714683223E+03  0.12714683223E+03  0.00000000000E+00 0. -1.
          6    1    1    2  501    0  0.43869003862E+02 -0.18245088827E+03  0.10835758241E+03  0.27665534840E+03  0.17200000000E+03 0. -1.
         -6    1    1    2    0  502 -0.43869003862E+02  0.18245088827E+03  0.33374569365E+03  0.41974159212E+03  0.17200000000E+03 0.  1.
</event>
<event>
 4    1  0.5701701E+000  0.1754438E+03  0.7818608E-02  0.1172287E+00
         21   -1    0    0  501  502  0.00000000000E+00  0.00000000000E+00  0.29426584384E+02  0.29426584384E+02  0.00000000000E+00 0.  1.
         21   -1    0    0  502  503 -0.00000000000E+00 -0.00000000000E+00 -0.12877014375E+04  0.12877014375E+04  0.00000000000E+00 0.  1.
          6    1    1    2  501    0 -0.34276995102E+02 -0.46488923223E+01 -0.34382523362E+03  0.38600040916E+03  0.17200000000E+03 0.  1.
         -6    1    1    2    0  503  0.34276995102E+02  0.46488923223E+01 -0.91444961946E+03  0.93112761269E+03  0.17200000000E+03 0.  1.
</event>
<event>
 4    1  0.5701701E+000  0.2417859E+03  0.7818608E-02  0.1118609E+00
         21   -1    0    0  501  502  0.00000000000E+00  0.00000000000E+00  0.41175648190E+03  0.41175648190E+03  0.00000000000E+00 0.  1.
         21   -1    0    0  502  503 -0.00000000000E+00 -0.00000000000E+00 -0.35740301398E+03  0.35740301398E+03  0.00000000000E+00 0.  1.
          6    1    1    2  501    0  0.16747166078E+03  0.28804258803E+02  0.32575292437E+03  0.40567894970E+03  0.17200000000E+03 0.  1.
         -6    1    1    2    0  503 -0.16747166078E+03 -0.28804258803E+02 -0.27139945645E+03  0.36348054618E+03  0.17200000000E+03 0.  1.
</event>
<event>
 4    1  0.5701701E+000  0.1805518E+03  0.7818608E-02  0.1167270E+00
         21   -1    0    0  503  502  0.00000000000E+00  0.00000000000E+00  0.66023517097E+02  0.66023517097E+02  0.00000000000E+00 0. -1.
         21   -1    0    0  501  503 -0.00000000000E+00 -0.00000000000E+00 -0.52367514454E+03  0.52367514454E+03  0.00000000000E+00 0. -1.
          6    1    1    2  501    0 -0.54907160836E+02 -0.38361964038E+00 -0.29931228473E+03  0.34955226686E+03  0.17200000000E+03 0. -1.
         -6    1    1    2    0  502  0.54907160836E+02  0.38361964038E+00 -0.15833934271E+03  0.24014639478E+03  0.17200000000E+03 0. -1.
</event>
<event>
 4    1  0.5701701E+000  0.1827689E+03  0.7818608E-02  0.1165150E+00
         21   -1    0    0  503  502  0.00000000000E+00  0.00000000000E+00  0.87415429397E+02  0.87415429397E+02  0.00000000000E+00 0. -1.
         21   -1    0    0  501  503 -0.00000000000E+00 -0.00000000000E+00 -0.72263124124E+03  0.72263124124E+03  0.00000000000E+00 0.  1.
          6    1    1    2  501    0  0.59987040777E+02 -0.14900321380E+02 -0.59562920124E+03  0.62303981414E+03  0.17200000000E+03 0.  1.
         -6    1    1    2    0  502 -0.59987040777E+02  0.14900321380E+02 -0.39586610609E+02  0.18700685650E+03  0.17200000000E+03 0. -1.
</event>
<event>
 4    1  0.5701701E+000  0.2846709E+03  0.7818608E-02  0.1093165E+00
         21   -1    0    0  503  502  0.00000000000E+00  0.00000000000E+00  0.46846086907E+03  0.46846086907E+03  0.00000000000E+00 0. -1.
         21   -1    0    0  501  503 -0.00000000000E+00 -0.00000000000E+00 -0.17316789253E+03  0.17316789253E+03  0.00000000000E+00 0. -1.
          6    1    1    2  501    0  0.76352467175E+02  0.21359734185E+03  0.13727050604E+03  0.31603910441E+03  0.17200000000E+03 0. -1.
         -6    1    1    2    0  502 -0.76352467175E+02 -0.21359734185E+03  0.15802247050E+03  0.32558965719E+03  0.17200000000E+03 0. -1.
</event>
<event>
 4    1  0.5701701E+000  0.1897409E+03  0.7818608E-02  0.1158695E+00
         21   -1    0    0  501  502  0.00000000000E+00  0.00000000000E+00  0.17485884184E+03  0.17485884184E+03  0.00000000000E+00 0.  1.
         21   -1    0    0  502  503 -0.00000000000E+00 -0.00000000000E+00 -0.31888916048E+03  0.31888916048E+03  0.00000000000E+00 0. -1.
          6    1    1    2  501    0 -0.59935221929E+02  0.53154154270E+02  0.74943133015E+02  0.20400506888E+03  0.17200000000E+03 0.  1.
         -6    1    1    2    0  503  0.59935221929E+02 -0.53154154270E+02 -0.21897345166E+03  0.28974293344E+03  0.17200000000E+03 0. -1.
</event>
<event>
 4    1  0.5701701E+000  0.1731201E+03  0.7818608E-02  0.1174633E+00
         21   -1    0    0  503  502  0.00000000000E+00  0.00000000000E+00  0.50918516651E+02  0.50918516651E+02  0.00000000000E+00 0. -1.
         21   -1    0    0  501  503 -0.00000000000E+00 -0.00000000000E+00 -0.96385977093E+03  0.96385977093E+03  0.00000000000E+00 0. -1.
          6    1    1    2  501    0 -0.12885611858E+02 -0.14850183248E+02 -0.77306345056E+03  0.79221061943E+03  0.17200000000E+03 0. -1.
         -6    1    1    2    0  502  0.12885611858E+02  0.14850183248E+02 -0.13987780372E+03  0.22256766816E+03  0.17200000000E+03 0. -1.
</event>
<event>
 4    1  0.5701701E+000  0.2302623E+03  0.7818608E-02  0.1126455E+00
         21   -1    0    0  501  502  0.00000000000E+00  0.00000000000E+00  0.52343457683E+03  0.52343457683E+03  0.00000000000E+00 0. -1.
         21   -1    0    0  502  503 -0.00000000000E+00 -0.00000000000E+00 -0.17731960094E+03  0.17731960094E+03  0.00000000000E+00 0. -1.
          6    1    1    2  501    0  0.34851333483E+01  0.15305090941E+03  0.40248080696E+03  0.46369335449E+03  0.17200000000E+03 0. -1.
         -6    1    1    2    0  503 -0.34851333483E+01 -0.15305090941E+03 -0.56365831065E+02  0.23706082329E+03  0.17200000000E+03 0. -1.
</event>
<event>
 4    1  0.5701701E+000  0.1840955E+03  0.7818608E-02  0.1163897E+00
         21   -1    0    0  501  502  0.00000000000E+00  0.00000000000E+00  0.24678193503E+03  0.24678193503E+03  0.00000000000E+00 0.  1.
         21   -1    0    0  502  503 -0.00000000000E+00 -0.00000000000E+00 -0.14119468802E+03  0.14119468802E+03  0.00000000000E+00 0.  1.
          6    1    1    2  501    0  0.32860738624E+02 -0.56809528222E+02  0.20709528023E+02  0.18525667381E+03  0.17200000000E+03 0. -1.
         -6    1    1    2    0  503 -0.32860738624E+02  0.56809528222E+02  0.84877718983E+02  0.20271994924E+03  0.17200000000E+03 0. -1.
</event>
<event>
 4    1  0.5701701E+000  0.1814913E+03  0.7818608E-02  0.1166368E+00
         21   -1    0    0  503  502  0.00000000000E+00  0.00000000000E+00  0.74389602616E+02  0.74389602616E+02  0.00000000000E+00 0.  1.
         21   -1    0    0  501  503 -0.00000000000E+00 -0.00000000000E+00 -0.15912120286E+04  0.15912120286E+04  0.00000000000E+00 0.  1.
          6    1    1    2  501    0 -0.30404795547E+01 -0.57843276933E+02 -0.14659130550E+04  0.14771053361E+04  0.17200000000E+03 0.  1.
         -6    1    1    2    0  502  0.30404795547E+01  0.57843276933E+02 -0.50909370965E+02  0.18849629507E+03  0.17200000000E+03 0.  1.
</event>
<event>
 4    1  0.5701701E+000  0.1732986E+03  0.7818608E-02  0.1174451E+00
         21   -1    0    0  501  502  0.00000000000E+00  0.00000000000E+00  0.31992252394E+02  0.31992252394E+02  0.00000000000E+00 0.  1.
         21   -1    0    0  502  503 -0.00000000000E+00 -0.00000000000E+00 -0.97732500757E+03  0.97732500757E+03  0.00000000000E+00 0.  1.
          6    1    1    2  501    0 -0.17998071918E+02  0.11156209310E+02 -0.37239194690E+03  0.41074098129E+03  0.17200000000E+03 0.  1.
         -6    1    1    2    0  503  0.17998071918E+02 -0.11156209310E+02 -0.57294080828E+03  0.59857627867E+03  0.17200000000E+03 0.  1.
</event>
<event>
 4    1  0.5701701E+000  0.3095144E+03  0.7818608E-02  0.1080579E+00
         21   -1    0    0  503  502  0.00000000000E+00  0.00000000000E+00  0.28330805900E+03  0.28330805900E+03  0.00000000000E+00 0.  1.
         21   -1    0    0  501  503 -0.00000000000E+00 -0.00000000000E+00 -0.55779707787E+03  0.55779707787E+03  0.00000000000E+00 0.  1.
          6    1    1    2  501    0 -0.83291356048E+02 -0.24347016020E+03 -0.40115092703E+03  0.50667665740E+03  0.17200000000E+03 0.  1.
         -6    1    1    2    0  502  0.83291356048E+02  0.24347016020E+03  0.12666190816E+03  0.33442847946E+03  0.17200000000E+03 0.  1.
</event>
<event>
 4    1  0.5701701E+000  0.1914797E+03  0.7818608E-02  0.1157133E+00
         21   -1    0    0  501  502  0.00000000000E+00  0.00000000000E+00  0.46085313459E+03  0.46085313459E+03  0.00000000000E+00 0. -1.
         21   -1    0    0  502  503 -0.00000000000E+00 -0.00000000000E+00 -0.90186709767E+02  0.90186709767E+02  0.00000000000E+00 0.  1.
          6    1    1    2  501    0  0.10409213130E+02 -0.83499248292E+02  0.27991890434E+03  0.33914461398E+03  0.17200000000E+03 0. -1.
         -6    1    1    2    0  503 -0.10409213130E+02  0.83499248292E+02  0.90747520483E+02  0.21189523038E+03  0.17200000000E+03 0.  1.
</event>
<event>
 4    1  0.5701701E+000  0.2017327E+03  0.7818608E-02  0.1148285E+00
         21   -1    0    0  503  502  0.00000000000E+00  0.00000000000E+00  0.12956293338E+03  0.12956293338E+03  0.00000000000E+00 0.  1.
         21   -1    0    0  501  503 -0.00000000000E+00 -0.00000000000E+00 -0.31503819839E+03  0.31503819839E+03  0.00000000000E+00 0.  1.
          6    1    1    2  501    0 -0.10541255160E+03 -0.51589414593E+00 -0.10485118560E+03  0.22735400437E+03  0.17200000000E+03 0.  1.
         -6    1    1    2    0  502  0.10541255160E+03  0.51589414593E+00 -0.80624079402E+02  0.21724712740E+03  0.17200000000E+03 0.  1.
</event>
<event>
 4    1  0.5701701E+000  0.2466598E+03  0.7818608E-02  0.1115434E+00
         21   -1    0    0  501  502  0.00000000000E+00  0.00000000000E+00  0.24583999958E+03  0.24583999958E+03  0.00000000000E+00 0.  1.
         21   -1    0    0  502  503 -0.00000000000E+00 -0.00000000000E+00 -0.37754266618E+03  0.37754266618E+03  0.00000000000E+00 0.  1.
          6    1    1    2  501    0  0.14591357512E+03  0.99831266802E+02  0.11709097777E+03  0.27304093157E+03  0.17200000000E+03 0.  1.
         -6    1    1    2    0  503 -0.14591357512E+03 -0.99831266802E+02 -0.24879364437E+03  0.35034173419E+03  0.17200000000E+03 0.  1.
</event>
<event>
 4    1  0.5701701E+000  0.1990502E+03  0.7818608E-02  0.1150543E+00
         21   -1    0    0  501  502  0.00000000000E+00  0.00000000000E+00  0.33130634192E+04  0.33130634192E+04  0.00000000000E+00 0.  1.
         21   -1    0    0  502  503 -0.00000000000E+00 -0.00000000000E+00 -0.14669655114E+02  0.14669655114E+02  0.00000000000E+00 0.  1.
          6    1    1    2  501    0  0.59540586982E+01  0.10000774383E+03  0.23644238370E+04  0.23727876181E+04  0.17200000000E+03 0.  1.
         -6    1    1    2    0  503 -0.59540586982E+01 -0.10000774383E+03  0.93396992707E+03  0.95494545619E+03  0.17200000000E+03 0.  1.
</event>
<event>
 4    1  0.5701701E+000  0.1780870E+03  0.7818608E-02  0.1169667E+00
         21   -1    0    0  501  502  0.00000000000E+00  0.00000000000E+00  0.19753477681E+03  0.19753477681E+03  0.00000000000E+00 0.  1.
         21   -1    0    0  502  503 -0.00000000000E+00 -0.00000000000E+00 -0.51225874839E+03  0.51225874839E+03  0.00000000000E+00 0.  1.
          6    1    1    2  501    0  0.18367071093E+02  0.42351146919E+02  0.13670519237E+03  0.22450674503E+03  0.17200000000E+03 0.  1.
         -6    1    1    2    0  503 -0.18367071093E+02 -0.42351146919E+02 -0.45142916394E+03  0.48528678016E+03  0.17200000000E+03 0.  1.
</event>
<event>
 4    1  0.5701701E+000  0.1794289E+03  0.7818608E-02  0.1168357E+00
         21   -1    0    0  501  502  0.00000000000E+00  0.00000000000E+00  0.40822394380E+03  0.40822394380E+03  0.00000000000E+00 0. -1.
         21   -1    0    0  502  503 -0.00000000000E+00 -0.00000000000E+00 -0.12600840828E+03  0.12600840828E+03  0.00000000000E+00 0.  1.
          6    1    1    2  501    0  0.51093976336E+02 -0.34374721802E+00  0.30449173363E+03  0.35342598720E+03  0.17200000000E+03 0. -1.
         -6    1    1    2    0  503 -0.51093976336E+02  0.34374721802E+00 -0.22276198116E+02  0.18080636488E+03  0.17200000000E+03 0.  1.
</event>
<event>
 4    1  0.5701701E+000  0.2524211E+03  0.7818608E-02  0.1111784E+00
         21   -1    0    0  501  502  0.00000000000E+00  0.00000000000E+00  0.34745078761E+02  0.34745078761E+02  0.00000000000E+00 0. -1.
         21   -1    0    0  502  503 -0.00000000000E+00 -0.00000000000E+00 -0.18483707617E+04  0.18483707617E+04  0.00000000000E+00 0. -1.
          6    1    1    2  501    0 -0.18459020144E+03 -0.76724443221E+01 -0.82328824873E+03  0.86111552614E+03  0.17200000000E+03 0. -1.
         -6    1    1    2    0  503  0.18459020144E+03  0.76724443221E+01 -0.99033743421E+03  0.10220003143E+04  0.17200000000E+03 0. -1.
</event>
<event>
 4    1  0.5701701E+000  0.2268163E+03  0.7818608E-02  0.1128901E+00
         21   -1    0    0  503  502  0.00000000000E+00  0.00000000000E+00  0.94449124797E+02  0.94449124797E+02  0.00000000000E+00 0. -1.
         21   -1    0    0  501  503 -0.00000000000E+00 -0.00000000000E+00 -0.23818786893E+04  0.23818786893E+04  0.00000000000E+00 0.  1.
          6    1    1    2  501    0  0.75132913138E+02 -0.12734467714E+03 -0.22311290885E+04  0.22426285094E+04  0.17200000000E+03 0.  1.
         -6    1    1    2    0  502 -0.75132913138E+02  0.12734467714E+03 -0.56300475987E+02  0.23369930472E+03  0.17200000000E+03 0. -1.
</event>
<event>
 4    1  0.5701701E+000  0.2062078E+03  0.7818608E-02  0.1144605E+00
         21   -1    0    0  501  502  0.00000000000E+00  0.00000000000E+00  0.14333943813E+04  0.14333943813E+04  0.00000000000E+00 0. -1.
         21   -1    0    0  502  503 -0.00000000000E+00 -0.00000000000E+00 -0.29675831539E+02  0.29675831539E+02  0.00000000000E+00 0. -1.
          6    1    1    2  501    0 -0.11258294809E+03 -0.16209416709E+02  0.71582565780E+03  0.74493492183E+03  0.17200000000E+03 0. -1.
         -6    1    1    2    0  503  0.11258294809E+03  0.16209416709E+02  0.68789289200E+03  0.71813529105E+03  0.17200000000E+03 0. -1.
</event>
<event>
 4    1  0.5701701E+000  0.1779357E+03  0.7818608E-02  0.1169816E+00
         21   -1    0    0  501  502  0.00000000000E+00  0.00000000000E+00  0.13939479808E+04  0.13939479808E+04  0.00000000000E+00 0.  1.
         21   -1    0    0  502  503 -0.00000000000E+00 -0.00000000000E+00 -0.23261938774E+02  0.23261938774E+02  0.00000000000E+00 0. -1.
          6    1    1    2  501    0 -0.33569206621E+02 -0.30825889274E+02  0.57651682438E+03  0.60335128729E+03  0.17200000000E+03 0.  1.
         -6    1    1    2    0  503  0.33569206621E+02  0.30825889274E+02  0.79416921762E+03  0.81385863225E+03  0.17200000000E+03 0.  1.
</event>
<event>
 4    1  0.5701701E+000  0.1929372E+03  0.7818608E-02  0.1155839E+00
         21   -1    0    0  503  502  0.00000000000E+00  0.00000000000E+00  0.34678204209E+03  0.34678204209E+03  0.00000000000E+00 0. -1.
         21   -1    0    0  501  503 -0.00000000000E+00 -0.00000000000E+00 -0.17023142495E+03  0.17023142495E+03  0.00000000000E+00 0. -1.
          6    1    1    2  501    0  0.12710947302E+02 -0.86482243011E+02 -0.68846380426E+02  0.20485255828E+03  0.17200000000E+03 0. -1.
         -6    1    1    2    0  502 -0.12710947302E+02  0.86482243011E+02  0.24539699757E+03  0.31216090876E+03  0.17200000000E+03 0. -1.
</event>
<event>
 4    1  0.5701701E+000  0.1987762E+03  0.7818608E-02  0.1150776E+00
         21   -1    0    0  501  502  0.00000000000E+00  0.00000000000E+00  0.28641612094E+03  0.28641612094E+03  0.00000000000E+00 0. -1.
         21   -1    0    0  502  503 -0.00000000000E+00 -0.00000000000E+00 -0.13922069492E+03  0.13922069492E+03  0.00000000000E+00 0. -1.
          6    1    1    2  501    0  0.48526732167E+02 -0.87023753689E+02  0.53290229501E+02  0.20579559276E+03  0.17200000000E+03 0.  1.
         -6    1    1    2    0  503 -0.48526732167E+02  0.87023753689E+02  0.93905196520E+02  0.21984122310E+03  0.17200000000E+03 0.  1.
</event>
<event>
 4    1  0.5701701E+000  0.1771804E+03  0.7818608E-02  0.1170560E+00
         21   -1    0    0  503  502  0.00000000000E+00  0.00000000000E+00  0.15610473520E+03  0.15610473520E+03  0.00000000000E+00 0. -1.
         21   -1    0    0  501  503 -0.00000000000E+00 -0.00000000000E+00 -0.36534768180E+03  0.36534768180E+03  0.00000000000E+00 0. -1.
          6    1    1    2  501    0 -0.23416596540E+01  0.42466647537E+02 -0.27943664695E+03  0.33087420447E+03  0.17200000000E+03 0. -1.
         -6    1    1    2    0  502  0.23416596540E+01 -0.42466647537E+02  0.70193700347E+02  0.19057821253E+03  0.17200000000E+03 0. -1.
</event>
<event>
 4    1  0.5701701E+000  0.2047484E+03  0.7818608E-02  0.1145793E+00
         21   -1    0    0  501  502  0.00000000000E+00  0.00000000000E+00  0.65370220050E+02  0.65370220050E+02  0.00000000000E+00 0. -1.
         21   -1    0    0  502  503 -0.00000000000E+00 -0.00000000000E+00 -0.68678640049E+03  0.68678640049E+03  0.00000000000E+00 0. -1.
          6    1    1    2  501    0  0.86927149963E+02  0.69149005942E+02 -0.21392292611E+03  0.29611641754E+03  0.17200000000E+03 0.  1.
         -6    1    1    2    0  503 -0.86927149963E+02 -0.69149005942E+02 -0.40749325433E+03  0.45604020300E+03  0.17200000000E+03 0.  1.
</event>
<event>
 4    1  0.5701701E+000  0.2104380E+03  0.7818608E-02  0.1141220E+00
         21   -1    0    0  503  502  0.00000000000E+00  0.00000000000E+00  0.10753256123E+04  0.10753256123E+04  0.00000000000E+00 0. -1.
         21   -1    0    0  501  503 -0.00000000000E+00 -0.00000000000E+00 -0.47234609530E+02  0.47234609530E+02  0.00000000000E+00 0.  1.
          6    1    1    2  501    0 -0.10516862499E+03 -0.60330021041E+02  0.31312800595E+03  0.37727085659E+03  0.17200000000E+03 0.  1.
         -6    1    1    2    0  502  0.10516862499E+03  0.60330021041E+02  0.71496299685E+03  0.74528936527E+03  0.17200000000E+03 0.  1.
</event>
<event>
 4    1  0.5701701E+000  0.2274625E+03  0.7818608E-02  0.1128439E+00
         21   -1    0    0  501  502  0.00000000000E+00  0.00000000000E+00  0.24818223408E+03  0.24818223408E+03  0.00000000000E+00 0.  1.
         21   -1    0    0  502  503 -0.00000000000E+00 -0.00000000000E+00 -0.23330615951E+03  0.23330615951E+03  0.00000000000E+00 0. -1.
          6    1    1    2  501    0  0.12688663093E+03 -0.77813791964E+02  0.85981842843E+02  0.24317088771E+03  0.17200000000E+03 0.  1.
         -6    1    1    2    0  503 -0.12688663093E+03  0.77813791964E+02 -0.71105768270E+02  0.23831750588E+03  0.17200000000E+03 0. -1.
</event>
<event>
 4    1  0.5701701E+000  0.1866630E+03  0.7818608E-02  0.1161506E+00
         21   -1    0    0  501  502  0.00000000000E+00  0.00000000000E+00  0.18827790815E+03  0.18827790815E+03  0.00000000000E+00 0.  1.
         21   -1    0    0  502  503 -0.00000000000E+00 -0.00000000000E+00 -0.20742030055E+03  0.20742030055E+03  0.00000000000E+00 0.  1.
          6    1    1    2  501    0  0.71814607209E+02  0.10085716963E+02  0.55386293544E+02  0.19470670509E+03  0.17200000000E+03 0. -1.
         -6    1    1    2    0  503 -0.71814607209E+02 -0.10085716963E+02 -0.74528685939E+02  0.20099150361E+03  0.17200000000E+03 0. -1.
</event>
<event>
 4    1  0.5701701E+000  0.1733407E+03  0.7818608E-02  0.1174408E+00
         21   -1    0    0  503  502  0.00000000000E+00  0.00000000000E+00  0.14823904883E+04  0.14823904883E+04  0.00000000000E+00 0. -1.
         21   -1    0    0  501  503 -0.00000000000E+00 -0.00000000000E+00 -0.30783957838E+02  0.30783957838E+02  0.00000000000E+00 0. -1.
          6    1    1    2  501    0  0.18421600037E+02  0.11120087925E+02  0.28362801679E+03  0.33240316426E+03  0.17200000000E+03 0.  1.
         -6    1    1    2    0  502 -0.18421600037E+02 -0.11120087925E+02  0.11679785137E+04  0.11807712819E+04  0.17200000000E+03 0.  1.
</event>
<event>
 4    1  0.5701701E+000  0.2334432E+03  0.7818608E-02  0.1124239E+00
         21   -1    0    0  501  502  0.00000000000E+00  0.00000000000E+00  0.30410942719E+03  0.30410942719E+03  0.00000000000E+00 0.  1.
         21   -1    0    0  502  503 -0.00000000000E+00 -0.00000000000E+00 -0.29368927956E+03  0.29368927956E+03  0.00000000000E+00 0.  1.
          6    1    1    2  501    0 -0.20616741165E+02  0.15648225360E+03  0.19183406743E+03  0.30215237072E+03  0.17200000000E+03 0.  1.
         -6    1    1    2    0  503  0.20616741165E+02 -0.15648225360E+03 -0.18141391981E+03  0.29564633603E+03  0.17200000000E+03 0.  1.
</event>
<event>
 4    1  0.5701701E+000  0.2059980E+03  0.7818608E-02  0.1144775E+00
         21   -1    0    0  503  502  0.00000000000E+00  0.00000000000E+00  0.20402236125E+03  0.20402236125E+03  0.00000000000E+00 0.  1.
         21   -1    0    0  501  503 -0.00000000000E+00 -0.00000000000E+00 -0.22821194160E+03  0.22821194160E+03  0.00000000000E+00 0.  1.
          6    1    1    2  501    0  0.71088889693E+02  0.88303665643E+02 -0.76423105176E+02  0.21971722420E+03  0.17200000000E+03 0.  1.
         -6    1    1    2    0  502 -0.71088889693E+02 -0.88303665643E+02  0.52233524826E+02  0.21251707865E+03  0.17200000000E+03 0.  1.
</event>
<event>
 4    1  0.5701701E+000  0.2564532E+03  0.7818608E-02  0.1109293E+00
         21   -1    0    0  501  502  0.00000000000E+00  0.00000000000E+00  0.61307657397E+02  0.61307657397E+02  0.00000000000E+00 0.  1.
         21   -1    0    0  502  503 -0.00000000000E+00 -0.00000000000E+00 -0.11873369891E+04  0.11873369891E+04  0.00000000000E+00 0. -1.
          6    1    1    2  501    0  0.17782146063E+03 -0.67555567098E+02 -0.36907081708E+03  0.44942351354E+03  0.17200000000E+03 0.  1.
         -6    1    1    2    0  503 -0.17782146063E+03  0.67555567098E+02 -0.75695851467E+03  0.79922113300E+03  0.17200000000E+03 0.  1.
</event>
<event>
 4    1  0.5701701E+000  0.2097901E+03  0.7818608E-02  0.1141732E+00
         21   -1    0    0  503  502  0.00000000000E+00  0.00000000000E+00  0.42043905722E+03  0.42043905722E+03  0.00000000000E+00 0. -1.
         21   -1    0    0  501  503 -0.00000000000E+00 -0.00000000000E+00 -0.35038726950E+03  0.35038726950E+03  0.00000000000E+00 0.  1.
          6    1    1    2  501    0 -0.11310767915E+03 -0.40429670198E+02 -0.28771995280E+03  0.35608240136E+03  0.17200000000E+03 0.  1.
         -6    1    1    2    0  502  0.11310767915E+03  0.40429670198E+02  0.35777174052E+03  0.41474392537E+03  0.17200000000E+03 0. -1.
</event>
<event>
 4    1  0.5701701E+000  0.1743127E+03  0.7818608E-02  0.1173424E+00
         21   -1    0    0  503  502  0.00000000000E+00  0.00000000000E+00  0.85486621621E+03  0.85486621621E+03  0.00000000000E+00 0. -1.
         21   -1    0    0  501  503 -0.00000000000E+00 -0.00000000000E+00 -0.36573929360E+02  0.36573929360E+02  0.00000000000E+00 0. -1.
          6    1    1    2  501    0  0.56134413215E+01 -0.27738373486E+02  0.33433129869E+03  0.37704422204E+03  0.17200000000E+03 0. -1.
         -6    1    1    2    0  502 -0.56134413215E+01  0.27738373486E+02  0.48396098816E+03  0.51439592353E+03  0.17200000000E+03 0. -1.
</event>
<event>
 4    1  0.5701701E+000  0.2925927E+03  0.7818608E-02  0.1089003E+00
         21   -1    0    0  503  502  0.00000000000E+00  0.00000000000E+00  0.17673982139E+03  0.17673982139E+03  0.00000000000E+00 0. -1.
         21   -1    0    0  501  503 -0.00000000000E+00 -0.00000000000E+00 -0.51365500852E+03  0.51365500852E+03  0.00000000000E+00 0. -1.
          6    1    1    2  501    0 -0.11706189667E+03 -0.20572559344E+03 -0.25085752757E+03  0.38540888234E+03  0.17200000000E+03 0. -1.
         -6    1    1    2    0  502  0.11706189667E+03  0.20572559344E+03 -0.86057659567E+02  0.30498594757E+03  0.17200000000E+03 0. -1.
</event>
<event>
 4    1  0.5701701E+000  0.2001310E+03  0.7818608E-02  0.1149629E+00
         21   -1    0    0  503  502  0.00000000000E+00  0.00000000000E+00  0.44198372370E+03  0.44198372370E+03  0.00000000000E+00 0.  1.
         21   -1    0    0  501  503 -0.00000000000E+00 -0.00000000000E+00 -0.20624739319E+03  0.20624739319E+03  0.00000000000E+00 0.  1.
          6    1    1    2  501    0  0.86788271007E+02 -0.54186811013E+02 -0.12481332428E+03  0.23586178239E+03  0.17200000000E+03 0.  1.
         -6    1    1    2    0  502 -0.86788271007E+02  0.54186811013E+02  0.36054965479E+03  0.41236933450E+03  0.17200000000E+03 0.  1.
</event>
<event>
 4    1  0.5701701E+000  0.1785621E+03  0.7818608E-02  0.1169202E+00
         21   -1    0    0  503  502  0.00000000000E+00  0.00000000000E+00  0.56159197923E+03  0.56159197923E+03  0.00000000000E+00 0. -1.
         21   -1    0    0  501  503 -0.00000000000E+00 -0.00000000000E+00 -0.57118223775E+02  0.57118223775E+02  0.00000000000E+00 0. -1.
          6    1    1    2  501    0  0.21623585078E+02 -0.42811801238E+02  0.27621459100E+03  0.32890565522E+03  0.17200000000E+03 0. -1.
         -6    1    1    2    0  502 -0.21623585078E+02  0.42811801238E+02  0.22825916446E+03  0.28980454778E+03  0.17200000000E+03 0. -1.
</event>
<event>
 4    1  0.5701701E+000  0.2164043E+03  0.7818608E-02  0.1136593E+00
         21   -1    0    0  501  502  0.00000000000E+00  0.00000000000E+00  0.59890240017E+02  0.59890240017E+02  0.00000000000E+00 0.  1.
         21   -1    0    0  502  503 -0.00000000000E+00 -0.00000000000E+00 -0.78210408598E+03  0.78210408598E+03  0.00000000000E+00 0. -1.
          6    1    1    2  501    0  0.12716766358E+03  0.32790227805E+02 -0.36713011491E+03  0.42616350732E+03  0.17200000000E+03 0. -1.
         -6    1    1    2    0  503 -0.12716766358E+03 -0.32790227805E+02 -0.35508373105E+03  0.41583081867E+03  0.17200000000E+03 0. -1.
</event>
<event>
 4    1  0.5701701E+000  0.1726615E+03  0.7818608E-02  0.1175100E+00
         21   -1    0    0  501  502  0.00000000000E+00  0.00000000000E+00  0.49212411697E+03  0.49212411697E+03  0.00000000000E+00 0. -1.
         21   -1    0    0  502  503 -0.00000000000E+00 -0.00000000000E+00 -0.49086473564E+03  0.49086473564E+03  0.00000000000E+00 0. -1.
          6    1    1    2  501    0 -0.13165044078E+02  0.73953276235E+01  0.46079782613E+03  0.49208398249E+03  0.17200000000E+03 0. -1.
         -6    1    1    2    0  503  0.13165044078E+02 -0.73953276235E+01 -0.45953844480E+03  0.49090487012E+03  0.17200000000E+03 0. -1.
</event>
<event>
 4    1  0.5701701E+000  0.2056461E+03  0.7818608E-02  0.1145061E+00
         21   -1    0    0  503  502  0.00000000000E+00  0.00000000000E+00  0.19998692313E+03  0.19998692313E+03  0.00000000000E+00 0. -1.
         21   -1    0    0  501  503 -0.00000000000E+00 -0.00000000000E+00 -0.38159862801E+03  0.38159862801E+03  0.00000000000E+00 0.  1.
          6    1    1    2  501    0  0.24575674070E+02  0.11001070278E+03 -0.28497255594E+03  0.35142520700E+03  0.17200000000E+03 0.  1.
         -6    1    1    2    0  502 -0.24575674070E+02 -0.11001070278E+03  0.10336085105E+03  0.23016034413E+03  0.17200000000E+03 0. -1.
</event>
<event>
 4    1  0.5701701E+000  0.1928263E+03  0.7818608E-02  0.1155937E+00
         21   -1    0    0  503  502  0.00000000000E+00  0.00000000000E+00  0.23445611390E+03  0.23445611390E+03  0.00000000000E+00 0. -1.
         21   -1    0    0  501  503 -0.00000000000E+00 -0.00000000000E+00 -0.26247267092E+03  0.26247267092E+03  0.00000000000E+00 0. -1.
          6    1    1    2  501    0 -0.77998961057E+02  0.38911954095E+02 -0.17032210142E+03  0.25727727519E+03  0.17200000000E+03 0. -1.
         -6    1    1    2    0  502  0.77998961057E+02 -0.38911954095E+02  0.14230554440E+03  0.23965150962E+03  0.17200000000E+03 0. -1.
</event>
<event>
 4    1  0.5701701E+000  0.1937583E+03  0.7818608E-02  0.1155115E+00
         21   -1    0    0  503  502  0.00000000000E+00  0.00000000000E+00  0.35196525211E+03  0.35196525211E+03  0.00000000000E+00 0.  1.
         21   -1    0    0  501  503 -0.00000000000E+00 -0.00000000000E+00 -0.10674933934E+03  0.10674933934E+03  0.00000000000E+00 0.  1.
          6    1    1    2  501    0 -0.74674909100E+02  0.48805160837E+02  0.12906430104E+03  0.23280867591E+03  0.17200000000E+03 0. -1.
         -6    1    1    2    0  502  0.74674909100E+02 -0.48805160837E+02  0.11615161173E+03  0.22590591555E+03  0.17200000000E+03 0. -1.
</event>
<event>
 4    1  0.5701701E+000  0.2132670E+03  0.7818608E-02  0.1139005E+00
         21   -1    0    0  503  502  0.00000000000E+00  0.00000000000E+00  0.12161786297E+03  0.12161786297E+03  0.00000000000E+00 0.  1.
         21   -1    0    0  501  503 -0.00000000000E+00 -0.00000000000E+00 -0.37400265434E+03  0.37400265434E+03  0.00000000000E+00 0. -1.
          6    1    1    2  501    0 -0.65517010146E+02 -0.10773271652E+03 -0.12806118152E+03  0.24876190030E+03  0.17200000000E+03 0. -1.
         -6    1    1    2    0  502  0.65517010146E+02  0.10773271652E+03 -0.12432360985E+03  0.24685861701E+03  0.17200000000E+03 0.  1.
</event>
<event>
 4    1  0.5701701E+000  0.1837091E+03  0.7818608E-02  0.1164261E+00
         21   -1    0    0  501  502  0.00000000000E+00  0.00000000000E+00  0.74443220122E+03  0.74443220122E+03  0.00000000000E+00 0.  1.
         21   -1    0    0  502  503 -0.00000000000E+00 -0.00000000000E+00 -0.14671218323E+03  0.14671218323E+03  0.00000000000E+00 0.  1.
          6    1    1    2  501    0  0.53191743351E+02 -0.36546931545E+02  0.66924596124E+03  0.69400230288E+03  0.17200000000E+03 0.  1.
         -6    1    1    2    0  503 -0.53191743351E+02  0.36546931545E+02 -0.71525943257E+02  0.19714208157E+03  0.17200000000E+03 0.  1.
</event>
<event>
 4    1  0.5701701E+000  0.1908641E+03  0.7818608E-02  0.1157684E+00
         21   -1    0    0  503  502  0.00000000000E+00  0.00000000000E+00  0.84395572829E+03  0.84395572829E+03  0.00000000000E+00 0. -1.
         21   -1    0    0  501  503 -0.00000000000E+00 -0.00000000000E+00 -0.57660164186E+02  0.57660164186E+02  0.00000000000E+00 0. -1.
          6    1    1    2  501    0  0.38893082440E+01 -0.82643599477E+02  0.16711586417E+03  0.25368642713E+03  0.17200000000E+03 0. -1.
         -6    1    1    2    0  502 -0.38893082440E+01  0.82643599477E+02  0.61917969993E+03  0.64792946534E+03  0.17200000000E+03 0. -1.
</event>
<event>
 4    1  0.5701701E+000  0.1743296E+03  0.7818608E-02  0.1173407E+00
         21   -1    0    0  503  502  0.00000000000E+00  0.00000000000E+00  0.14441494901E+03  0.14441494901E+03  0.00000000000E+00 0.  1.
         21   -1    0    0  501  503 -0.00000000000E+00 -0.00000000000E+00 -0.23883392737E+03  0.23883392737E+03  0.00000000000E+00 0.  1.
          6    1    1    2  501    0  0.66349233691E+01  0.27618406781E+02  0.18861291178E+02  0.17534693298E+03  0.17200000000E+03 0.  1.
         -6    1    1    2    0  502 -0.66349233691E+01 -0.27618406781E+02 -0.11328026954E+03  0.20790194340E+03  0.17200000000E+03 0.  1.
</event>
<event>
 4    1  0.5701701E+000  0.2004802E+03  0.7818608E-02  0.1149334E+00
         21   -1    0    0  503  502  0.00000000000E+00  0.00000000000E+00  0.23256941163E+03  0.23256941163E+03  0.00000000000E+00 0. -1.
         21   -1    0    0  501  503 -0.00000000000E+00 -0.00000000000E+00 -0.18396016537E+03  0.18396016537E+03  0.00000000000E+00 0. -1.
          6    1    1    2  501    0 -0.49599991084E+02  0.90267195943E+02 -0.26949237801E+02  0.20228343283E+03  0.17200000000E+03 0. -1.
         -6    1    1    2    0  502  0.49599991084E+02 -0.90267195943E+02  0.75558484057E+02  0.21424614417E+03  0.17200000000E+03 0. -1.
</event>
<event>
 4    1  0.5701701E+000  0.2306208E+03  0.7818608E-02  0.1126204E+00
         21   -1    0    0  501  502  0.00000000000E+00  0.00000000000E+00  0.15839285704E+03  0.15839285704E+03  0.00000000000E+00 0. -1.
         21   -1    0    0  502  503 -0.00000000000E+00 -0.00000000000E+00 -0.33646486190E+03  0.33646486190E+03  0.00000000000E+00 0. -1.
          6    1    1    2  501    0  0.36025095057E+02 -0.14934573208E+03 -0.77914297714E+02  0.24342677123E+03  0.17200000000E+03 0. -1.
         -6    1    1    2    0  503 -0.36025095057E+02  0.14934573208E+03 -0.10015770714E+03  0.25143094770E+03  0.17200000000E+03 0. -1.
</event>
<event>
 4    1  0.5701701E+000  0.1970154E+03  0.7818608E-02  0.1152282E+00
         21   -1    0    0  501  502  0.00000000000E+00  0.00000000000E+00  0.49617951899E+02  0.49617951899E+02  0.00000000000E+00 0.  1.
         21   -1    0    0  502  503 -0.00000000000E+00 -0.00000000000E+00 -0.83463465564E+03  0.83463465564E+03  0.00000000000E+00 0.  1.
          6    1    1    2  501    0  0.29969490379E+02  0.91284663255E+02 -0.28177415466E+03  0.34381933386E+03  0.17200000000E+03 0.  1.
         -6    1    1    2    0  503 -0.29969490379E+02 -0.91284663255E+02 -0.50324254908E+03  0.54043327368E+03  0.17200000000E+03 0.  1.
</event>
<event>
 4    1  0.5701701E+000  0.2968119E+03  0.7818608E-02  0.1086845E+00
         21   -1    0    0  501  502  0.00000000000E+00  0.00000000000E+00  0.27193824511E+03  0.27193824511E+03  0.00000000000E+00 0.  1.
         21   -1    0    0  502  503 -0.00000000000E+00 -0.00000000000E+00 -0.33747595785E+03  0.33747595785E+03  0.00000000000E+00 0.  1.
          6    1    1    2  501    0 -0.21202924740E+03  0.11643414589E+03  0.28209099466E+02  0.29814940110E+03  0.17200000000E+03 0.  1.
         -6    1    1    2    0  503  0.21202924740E+03 -0.11643414589E+03 -0.93746812211E+02  0.31126480187E+03  0.17200000000E+03 0.  1.
</event>
<event>
 4    1  0.5701701E+000  0.1853704E+03  0.7818608E-02  0.1162704E+00
         21   -1    0    0  501  502  0.00000000000E+00  0.00000000000E+00  0.95774577595E+03  0.95774577595E+03  0.00000000000E+00 0. -1.
         21   -1    0    0  502  503 -0.00000000000E+00 -0.00000000000E+00 -0.39616296403E+02  0.39616296403E+02  0.00000000000E+00 0. -1.
          6    1    1    2  501    0  0.69056860993E+02 -0.30555375283E+01  0.61224812378E+03  0.63969520197E+03  0.17200000000E+03 0. -1.
         -6    1    1    2    0  503 -0.69056860993E+02  0.30555375283E+01  0.30588135577E+03  0.35766687038E+03  0.17200000000E+03 0. -1.
</event>
<event>
 4    1  0.5701701E+000  0.1737652E+03  0.7818608E-02  0.1173977E+00
         21   -1    0    0  503  502  0.00000000000E+00  0.00000000000E+00  0.98069592616E+02  0.98069592616E+02  0.00000000000E+00 0. -1.
         21   -1    0    0  501  503 -0.00000000000E+00 -0.00000000000E+00 -0.33809200919E+03  0.33809200919E+03  0.00000000000E+00 0. -1.
          6    1    1    2  501    0  0.21864920545E+02 -0.11500866707E+02 -0.54827351807E+02  0.18220972310E+03  0.17200000000E+03 0. -1.
         -6    1    1    2    0  502 -0.21864920545E+02  0.11500866707E+02 -0.18519506477E+03  0.25395187871E+03  0.17200000000E+03 0. -1.
</event>
<event>
 4    1  0.5701701E+000  0.1841585E+03  0.7818608E-02  0.1163838E+00
         21   -1    0    0  503  502  0.00000000000E+00  0.00000000000E+00  0.30018610131E+03  0.30018610131E+03  0.00000000000E+00 0. -1.
         21   -1    0    0  501  503 -0.00000000000E+00 -0.00000000000E+00 -0.21714649639E+03  0.21714649639E+03  0.00000000000E+00 0.  1.
          6    1    1    2  501    0 -0.27698082632E+02 -0.59692145382E+02 -0.13763656737E+03  0.22990902696E+03  0.17200000000E+03 0.  1.
         -6    1    1    2    0  502  0.27698082632E+02  0.59692145382E+02  0.22067617229E+03  0.28742357074E+03  0.17200000000E+03 0. -1.
</event>
<event>
 4    1  0.5701701E+000  0.2156548E+03  0.7818608E-02  0.1137165E+00
         21   -1    0    0  503  502  0.00000000000E+00  0.00000000000E+00  0.11384821197E+03  0.11384821197E+03  0.00000000000E+00 0. -1.
         21   -1    0    0  501  503 -0.00000000000E+00 -0.00000000000E+00 -0.40925808426E+03  0.40925808426E+03  0.00000000000E+00 0. -1.
          6    1    1    2  501    0  0.85443376165E+02 -0.98093998601E+02 -0.15896131404E+03  0.26790987748E+03  0.17200000000E+03 0.  1.
         -6    1    1    2    0  502 -0.85443376165E+02  0.98093998601E+02 -0.13644855825E+03  0.25519641874E+03  0.17200000000E+03 0.  1.
</event>
<event>
 4    1  0.5701701E+000  0.1757094E+03  0.7818608E-02  0.1172021E+00
         21   -1    0    0  501  502  0.00000000000E+00  0.00000000000E+00  0.10637955435E+04  0.10637955435E+04  0.00000000000E+00 0.  1.
         21   -1    0    0  502  503 -0.00000000000E+00 -0.00000000000E+00 -0.29966290590E+02  0.29966290590E+02  0.00000000000E+00 0.  1.
          6    1    1    2  501    0  0.32154773142E+02 -0.15995517128E+02  0.61397941400E+03  0.63862704830E+03  0.17200000000E+03 0. -1.
         -6    1    1    2    0  503 -0.32154773142E+02  0.15995517128E+02  0.41984983892E+03  0.45513478580E+03  0.17200000000E+03 0. -1.
</event>
<event>
 4    1  0.5701701E+000  0.1738726E+03  0.7818608E-02  0.1173868E+00
         21   -1    0    0  501  502  0.00000000000E+00  0.00000000000E+00  0.26932898894E+03  0.26932898894E+03  0.00000000000E+00 0. -1.
         21   -1    0    0  502  503 -0.00000000000E+00 -0.00000000000E+00 -0.16617918403E+03  0.16617918403E+03  0.00000000000E+00 0. -1.
          6    1    1    2  501    0  0.25370821247E+02  0.20032196815E+01  0.17562503035E+03  0.24713527216E+03  0.17200000000E+03 0. -1.
         -6    1    1    2    0  503 -0.25370821247E+02 -0.20032196815E+01 -0.72475225429E+02  0.18837290081E+03  0.17200000000E+03 0. -1.
</event>
<event>
 4    1  0.5701701E+000  0.1789302E+03  0.7818608E-02  0.1168842E+00
         21   -1    0    0  501  502  0.00000000000E+00  0.00000000000E+00  0.27880700609E+02  0.27880700609E+02  0.00000000000E+00 0.  1.
         21   -1    0    0  502  503 -0.00000000000E+00 -0.00000000000E+00 -0.32147519923E+04  0.32147519923E+04  0.00000000000E+00 0.  1.
          6    1    1    2  501    0 -0.34442655592E+02  0.35294622888E+02 -0.29355215222E+03  0.34378608611E+03  0.17200000000E+03 0.  1.
         -6    1    1    2    0  503  0.34442655592E+02 -0.35294622888E+02 -0.28933191395E+04  0.28988466068E+04  0.17200000000E+03 0.  1.
</event>
<event>
 4    1  0.5701701E+000  0.1968908E+03  0.7818608E-02  0.1152389E+00
         21   -1    0    0  503  502  0.00000000000E+00  0.00000000000E+00  0.60246776969E+02  0.60246776969E+02  0.00000000000E+00 0.  1.
         21   -1    0    0  501  503 -0.00000000000E+00 -0.00000000000E+00 -0.85697871739E+03  0.85697871739E+03  0.00000000000E+00 0.  1.
          6    1    1    2  501    0  0.62970518544E+02 -0.72226837947E+02 -0.62728697436E+03  0.65746098784E+03  0.17200000000E+03 0.  1.
         -6    1    1    2    0  502 -0.62970518544E+02  0.72226837947E+02 -0.16944496607E+03  0.25976450653E+03  0.17200000000E+03 0.  1.
</event>
<event>
 4    1  0.5701701E+000  0.1742159E+03  0.7818608E-02  0.1173521E+00
         21   -1    0    0  503  502  0.00000000000E+00  0.00000000000E+00  0.35059881646E+03  0.35059881646E+03  0.00000000000E+00 0. -1.
         21   -1    0    0  501  503 -0.00000000000E+00 -0.00000000000E+00 -0.86777738158E+02  0.86777738158E+02  0.00000000000E+00 0. -1.
          6    1    1    2  501    0 -0.21461247393E+01  0.27614918895E+02  0.14262144177E+03  0.22514898456E+03  0.17200000000E+03 0. -1.
         -6    1    1    2    0  502  0.21461247393E+01 -0.27614918895E+02  0.12119963653E+03  0.21222757006E+03  0.17200000000E+03 0. -1.
</event>
<event>
 4    1  0.5701701E+000  0.2626770E+03  0.7818608E-02  0.1105545E+00
         21   -1    0    0  501  502  0.00000000000E+00  0.00000000000E+00  0.54041381373E+03  0.54041381373E+03  0.00000000000E+00 0. -1.
         21   -1    0    0  502  503 -0.00000000000E+00 -0.00000000000E+00 -0.13134652177E+03  0.13134652177E+03  0.00000000000E+00 0.  1.
          6    1    1    2  501    0  0.12359203614E+03  0.15537120199E+03  0.26066345689E+03  0.37006031882E+03  0.17200000000E+03 0.  1.
         -6    1    1    2    0  503 -0.12359203614E+03 -0.15537120199E+03  0.14840383506E+03  0.30170001668E+03  0.17200000000E+03 0.  1.
</event>
<event>
 4    1  0.5701701E+000  0.1787051E+03  0.7818608E-02  0.1169062E+00
         21   -1    0    0  503  502  0.00000000000E+00  0.00000000000E+00  0.23568320368E+03  0.23568320368E+03  0.00000000000E+00 0. -1.
         21   -1    0    0  501  503 -0.00000000000E+00 -0.00000000000E+00 -0.17820822047E+03  0.17820822047E+03  0.00000000000E+00 0.  1.
          6    1    1    2  501    0  0.16827205868E+02  0.45479196251E+02 -0.72569368039E+02  0.19287774710E+03  0.17200000000E+03 0.  1.
         -6    1    1    2    0  502 -0.16827205868E+02 -0.45479196251E+02  0.13004435125E+03  0.22101367704E+03  0.17200000000E+03 0. -1.
</event>
<event>
 4    1  0.5701701E+000  0.2459724E+03  0.7818608E-02  0.1115877E+00
         21   -1    0    0  503  502  0.00000000000E+00  0.00000000000E+00  0.80570044683E+03  0.80570044683E+03  0.00000000000E+00 0.  1.
         21   -1    0    0  501  503 -0.00000000000E+00 -0.00000000000E+00 -0.13538041935E+03  0.13538041935E+03  0.00000000000E+00 0. -1.
          6    1    1    2  501    0 -0.10052203047E+03 -0.14426962631E+03  0.21157853844E+02  0.24688065632E+03  0.17200000000E+03 0. -1.
         -6    1    1    2    0  502  0.10052203047E+03  0.14426962631E+03  0.64916217364E+03  0.69420020986E+03  0.17200000000E+03 0.  1.
</event>
<event>
 4    1  0.5701701E+000  0.2221161E+03  0.7818608E-02  0.1132315E+00
         21   -1    0    0  501  502  0.00000000000E+00  0.00000000000E+00  0.19986855074E+03  0.19986855074E+03  0.00000000000E+00 0.  1.
         21   -1    0    0  502  503 -0.00000000000E+00 -0.00000000000E+00 -0.28731881695E+03  0.28731881695E+03  0.00000000000E+00 0.  1.
          6    1    1    2  501    0  0.13983281638E+03 -0.14083569518E+02  0.47706739569E+02  0.22718163761E+03  0.17200000000E+03 0.  1.
         -6    1    1    2    0  503 -0.13983281638E+03  0.14083569518E+02 -0.13515700577E+03  0.26000573008E+03  0.17200000000E+03 0.  1.
</event>
<event>
 4    1  0.5701701E+000  0.1819632E+03  0.7818608E-02  0.1165916E+00
         21   -1    0    0  503  502  0.00000000000E+00  0.00000000000E+00  0.10911592949E+03  0.10911592949E+03  0.00000000000E+00 0.  1.
         21   -1    0    0  501  503 -0.00000000000E+00 -0.00000000000E+00 -0.30617870646E+03  0.30617870646E+03  0.00000000000E+00 0.  1.
          6    1    1    2  501    0 -0.58301218778E+02  0.11295126871E+02 -0.11815444321E+03  0.21695871601E+03  0.17200000000E+03 0.  1.
         -6    1    1    2    0  502  0.58301218778E+02 -0.11295126871E+02 -0.78908333761E+02  0.19833591994E+03  0.17200000000E+03 0.  1.
</event>
<event>
 4    1  0.5701701E+000  0.2406842E+03  0.7818608E-02  0.1119338E+00
         21   -1    0    0  503  502  0.00000000000E+00  0.00000000000E+00  0.35761211809E+03  0.35761211809E+03  0.00000000000E+00 0. -1.
         21   -1    0    0  501  503 -0.00000000000E+00 -0.00000000000E+00 -0.22984207990E+03  0.22984207990E+03  0.00000000000E+00 0. -1.
          6    1    1    2  501    0  0.12679917521E+03  0.11075580434E+03 -0.95709202390E+02  0.25901569537E+03  0.17200000000E+03 0. -1.
         -6    1    1    2    0  502 -0.12679917521E+03 -0.11075580434E+03  0.22347924058E+03  0.32843850261E+03  0.17200000000E+03 0. -1.
</event>
<event>
 4    1  0.5701701E+000  0.1756870E+03  0.7818608E-02  0.1172044E+00
         21   -1    0    0  501  502  0.00000000000E+00  0.00000000000E+00  0.79898306659E+02  0.79898306659E+02  0.00000000000E+00 0.  1.
         21   -1    0    0  502  503 -0.00000000000E+00 -0.00000000000E+00 -0.47529176033E+03  0.47529176033E+03  0.00000000000E+00 0.  1.
          6    1    1    2  501    0 -0.69745464196E+01 -0.35118138234E+02 -0.77589420160E+02  0.19205740301E+03  0.17200000000E+03 0.  1.
         -6    1    1    2    0  503  0.69745464196E+01  0.35118138234E+02 -0.31780403351E+03  0.36313266397E+03  0.17200000000E+03 0.  1.
</event>
<event>
 4    1  0.5701701E+000  0.2453976E+03  0.7818608E-02  0.1116248E+00
         21   -1    0    0  503  502  0.00000000000E+00  0.00000000000E+00  0.83561237660E+03  0.83561237660E+03  0.00000000000E+00 0. -1.
         21   -1    0    0  501  503 -0.00000000000E+00 -0.00000000000E+00 -0.79633117056E+02  0.79633117056E+02  0.00000000000E+00 0. -1.
          6    1    1    2  501    0 -0.60403614380E+02 -0.16427834314E+03  0.23693058737E+03  0.34111006125E+03  0.17200000000E+03 0. -1.
         -6    1    1    2    0  502  0.60403614380E+02  0.16427834314E+03  0.51904867217E+03  0.57413543240E+03  0.17200000000E+03 0. -1.
</event>
<event>
 4    1  0.5701701E+000  0.1826284E+03  0.7818608E-02  0.1165283E+00
         21   -1    0    0  503  502  0.00000000000E+00  0.00000000000E+00  0.58529006945E+03  0.58529006945E+03  0.00000000000E+00 0. -1.
         21   -1    0    0  501  503 -0.00000000000E+00 -0.00000000000E+00 -0.62619115178E+02  0.62619115178E+02  0.00000000000E+00 0. -1.
          6    1    1    2  501    0 -0.78083627065E+01 -0.60894785349E+02  0.35850225512E+03  0.40233942429E+03  0.17200000000E+03 0. -1.
         -6    1    1    2    0  502  0.78083627065E+01  0.60894785349E+02  0.16416869914E+03  0.24556976033E+03  0.17200000000E+03 0. -1.
</event>
<event>
 4    1  0.5701701E+000  0.2194974E+03  0.7818608E-02  0.1134258E+00
         21   -1    0    0  503  502  0.00000000000E+00  0.00000000000E+00  0.16716790083E+04  0.16716790083E+04  0.00000000000E+00 0.  1.
         21   -1    0    0  501  503 -0.00000000000E+00 -0.00000000000E+00 -0.33217964286E+02  0.33217964286E+02  0.00000000000E+00 0.  1.
          6    1    1    2  501    0  0.12766291934E+03  0.47929895396E+02  0.50908259380E+03  0.55438631220E+03  0.17200000000E+03 0.  1.
         -6    1    1    2    0  502 -0.12766291934E+03 -0.47929895396E+02  0.11293784502E+04  0.11505106604E+04  0.17200000000E+03 0.  1.
</event>
<event>
 4    1  0.5701701E+000  0.3161153E+03  0.7818608E-02  0.1077451E+00
         21   -1    0    0  501  502  0.00000000000E+00  0.00000000000E+00  0.31052008932E+03  0.31052008932E+03  0.00000000000E+00 0. -1.
         21   -1    0    0  502  503 -0.00000000000E+00 -0.00000000000E+00 -0.55236175128E+03  0.55236175128E+03  0.00000000000E+00 0.  1.
          6    1    1    2  501    0  0.80178862419E+02 -0.25281655036E+03  0.15781485240E+03  0.35331909905E+03  0.17200000000E+03 0. -1.
         -6    1    1    2    0  503 -0.80178862419E+02  0.25281655036E+03 -0.39965651436E+03  0.50956274156E+03  0.17200000000E+03 0.  1.
</event>
<event>
 4    1  0.5701701E+000  0.2967751E+03  0.7818608E-02  0.1086864E+00
         21   -1    0    0  501  502  0.00000000000E+00  0.00000000000E+00  0.30803851218E+03  0.30803851218E+03  0.00000000000E+00 0. -1.
         21   -1    0    0  502  503 -0.00000000000E+00 -0.00000000000E+00 -0.55884645076E+03  0.55884645076E+03  0.00000000000E+00 0.  1.
          6    1    1    2  501    0 -0.39347716509E+02  0.23862774886E+03  0.17750020996E+03  0.34580597140E+03  0.17200000000E+03 0. -1.
         -6    1    1    2    0  503  0.39347716509E+02 -0.23862774886E+03 -0.42830814854E+03  0.52107899154E+03  0.17200000000E+03 0.  1.
</event>
<event>
 4    1  0.5701701E+000  0.1860159E+03  0.7818608E-02  0.1162105E+00
         21   -1    0    0  503  502  0.00000000000E+00  0.00000000000E+00  0.77379890330E+03  0.77379890330E+03  0.00000000000E+00 0. -1.
         21   -1    0    0  501  503 -0.00000000000E+00 -0.00000000000E+00 -0.57813087524E+02  0.57813087524E+02  0.00000000000E+00 0. -1.
          6    1    1    2  501    0  0.58536348600E+02  0.39892375174E+02  0.16009111339E+03  0.24542019128E+03  0.17200000000E+03 0. -1.
         -6    1    1    2    0  502 -0.58536348600E+02 -0.39892375174E+02  0.55589470239E+03  0.58619179954E+03  0.17200000000E+03 0. -1.
</event>
<event>
 4    1  0.5701701E+000  0.2084070E+03  0.7818608E-02  0.1142834E+00
         21   -1    0    0  503  502  0.00000000000E+00  0.00000000000E+00  0.20814755291E+04  0.20814755291E+04  0.00000000000E+00 0. -1.
         21   -1    0    0  501  503 -0.00000000000E+00 -0.00000000000E+00 -0.21297337457E+02  0.21297337457E+02  0.00000000000E+00 0. -1.
          6    1    1    2  501    0  0.10186275403E+03  0.58935907809E+02  0.11795993587E+04  0.11978681517E+04  0.17200000000E+03 0. -1.
         -6    1    1    2    0  502 -0.10186275403E+03 -0.58935907809E+02  0.88057883296E+03  0.90490471484E+03  0.17200000000E+03 0. -1.
</event>
<event>
 4    1  0.5701701E+000  0.1915173E+03  0.7818608E-02  0.1157100E+00
         21   -1    0    0  503  502  0.00000000000E+00  0.00000000000E+00  0.60381841605E+03  0.60381841605E+03  0.00000000000E+00 0.  1.
         21   -1    0    0  501  503 -0.00000000000E+00 -0.00000000000E+00 -0.13105276286E+03  0.13105276286E+03  0.00000000000E+00 0.  1.
          6    1    1    2  501    0 -0.44868235024E+01  0.84111536745E+02 -0.32745935345E+02  0.19429662498E+03  0.17200000000E+03 0.  1.
         -6    1    1    2    0  502  0.44868235024E+01 -0.84111536745E+02  0.50551158854E+03  0.54057455392E+03  0.17200000000E+03 0.  1.
</event>
<event>
 4    1  0.5701701E+000  0.2014327E+03  0.7818608E-02  0.1148536E+00
         21   -1    0    0  503  502  0.00000000000E+00  0.00000000000E+00  0.22842145832E+03  0.22842145832E+03  0.00000000000E+00 0.  1.
         21   -1    0    0  501  503 -0.00000000000E+00 -0.00000000000E+00 -0.18185211514E+03  0.18185211514E+03  0.00000000000E+00 0.  1.
          6    1    1    2  501    0  0.90502220064E+02 -0.52919412577E+02 -0.79625545629E+01  0.20158997579E+03  0.17200000000E+03 0. -1.
         -6    1    1    2    0  502 -0.90502220064E+02  0.52919412577E+02  0.54531897751E+02  0.20868359767E+03  0.17200000000E+03 0. -1.
</event>
<event>
 4    1  0.5701701E+000  0.3000483E+03  0.7818608E-02  0.1085216E+00
         21   -1    0    0  501  502  0.00000000000E+00  0.00000000000E+00  0.11659239461E+03  0.11659239461E+03  0.00000000000E+00 0. -1.
         21   -1    0    0  502  503 -0.00000000000E+00 -0.00000000000E+00 -0.13867415252E+04  0.13867415252E+04  0.00000000000E+00 0.  1.
          6    1    1    2  501    0 -0.24306984975E+03  0.36906074276E+02 -0.13467797746E+03  0.32888777385E+03  0.17200000000E+03 0. -1.
         -6    1    1    2    0  503  0.24306984975E+03 -0.36906074276E+02 -0.11354711532E+04  0.11744461460E+04  0.17200000000E+03 0.  1.
</event>
<event>
 4    1  0.5701701E+000  0.2734856E+03  0.7818608E-02  0.1099301E+00
         21   -1    0    0  503  502  0.00000000000E+00  0.00000000000E+00  0.29652689095E+03  0.29652689095E+03  0.00000000000E+00 0. -1.
         21   -1    0    0  501  503 -0.00000000000E+00 -0.00000000000E+00 -0.31016108808E+03  0.31016108808E+03  0.00000000000E+00 0. -1.
          6    1    1    2  501    0  0.20198955696E+03  0.66412149788E+02 -0.13791030115E+03  0.30629006827E+03  0.17200000000E+03 0. -1.
         -6    1    1    2    0  502 -0.20198955696E+03 -0.66412149788E+02  0.12427610401E+03  0.30039791076E+03  0.17200000000E+03 0. -1.
</event>
<event>
 4    1  0.5701701E+000  0.1789487E+03  0.7818608E-02  0.1168824E+00
         21   -1    0    0  501  502  0.00000000000E+00  0.00000000000E+00  0.30106494250E+03  0.30106494250E+03  0.00000000000E+00 0. -1.
         21   -1    0    0  502  503 -0.00000000000E+00 -0.00000000000E+00 -0.11619816093E+03  0.11619816093E+03  0.00000000000E+00 0. -1.
          6    1    1    2  501    0  0.49336884833E+02  0.21264313450E+01  0.31740764063E+02  0.18174192147E+03  0.17200000000E+03 0.  1.
         -6    1    1    2    0  503 -0.49336884833E+02 -0.21264313450E+01  0.15312601751E+03  0.23552118197E+03  0.17200000000E+03 0.  1.
</event>
<event>
 4    1  0.5701701E+000  0.2353752E+03  0.7818608E-02  0.1122913E+00
         21   -1    0    0  501  502  0.00000000000E+00  0.00000000000E+00  0.15783983098E+03  0.15783983098E+03  0.00000000000E+00 0. -1.
         21   -1    0    0  502  503 -0.00000000000E+00 -0.00000000000E+00 -0.41484976479E+03  0.41484976479E+03  0.00000000000E+00 0.  1.
          6    1    1    2  501    0 -0.95144878185E+02 -0.12947941962E+03 -0.16166042245E+02  0.23592966933E+03  0.17200000000E+03 0.  1.
         -6    1    1    2    0  503  0.95144878185E+02  0.12947941962E+03 -0.24084389157E+03  0.33675992644E+03  0.17200000000E+03 0. -1.
</event>
<event>
 4    1  0.5701701E+000  0.1987964E+03  0.7818608E-02  0.1150758E+00
         21   -1    0    0  503  502  0.00000000000E+00  0.00000000000E+00  0.31096893318E+03  0.31096893318E+03  0.00000000000E+00 0. -1.
         21   -1    0    0  501  503 -0.00000000000E+00 -0.00000000000E+00 -0.12816979600E+03  0.12816979600E+03  0.00000000000E+00 0. -1.
          6    1    1    2  501    0 -0.95002595483E+02 -0.30174676548E+02  0.11158414497E+03  0.22797154573E+03  0.17200000000E+03 0. -1.
         -6    1    1    2    0  502  0.95002595483E+02  0.30174676548E+02  0.71214992212E+02  0.21116718346E+03  0.17200000000E+03 0. -1.
</event>
<event>
 4    1  0.5701701E+000  0.1835864E+03  0.7818608E-02  0.1164377E+00
         21   -1    0    0  503  502  0.00000000000E+00  0.00000000000E+00  0.56310905864E+03  0.56310905864E+03  0.00000000000E+00 0.  1.
         21   -1    0    0  501  503 -0.00000000000E+00 -0.00000000000E+00 -0.65635717398E+02  0.65635717398E+02  0.00000000000E+00 0.  1.
          6    1    1    2  501    0  0.58493133760E+02  0.26429860387E+02  0.15542719681E+03  0.24054437787E+03  0.17200000000E+03 0.  1.
         -6    1    1    2    0  502 -0.58493133760E+02 -0.26429860387E+02  0.34204614443E+03  0.38820039816E+03  0.17200000000E+03 0.  1.
</event>
<event>
 4    1  0.5701701E+000  0.2584143E+03  0.7818608E-02  0.1108100E+00
         21   -1    0    0  503  502  0.00000000000E+00  0.00000000000E+00  0.21073045368E+04  0.21073045368E+04  0.00000000000E+00 0.  1.
         21   -1    0    0  501  503 -0.00000000000E+00 -0.00000000000E+00 -0.75234963856E+02  0.75234963856E+02  0.00000000000E+00 0. -1.
          6    1    1    2  501    0  0.18894447837E+03 -0.38651413860E+02  0.18580708517E+03  0.31828009771E+03  0.17200000000E+03 0.  1.
         -6    1    1    2    0  502 -0.18894447837E+03  0.38651413860E+02  0.18462624878E+04  0.18642594030E+04  0.17200000000E+03 0.  1.
</event>
<event>
 4    1  0.5701701E+000  0.1852028E+03  0.7818608E-02  0.1162861E+00
         21   -1    0    0  503  502  0.00000000000E+00  0.00000000000E+00  0.83852603032E+03  0.83852603032E+03  0.00000000000E+00 0. -1.
         21   -1    0    0  501  503 -0.00000000000E+00 -0.00000000000E+00 -0.49942070828E+02  0.49942070828E+02  0.00000000000E+00 0. -1.
          6    1    1    2  501    0  0.39817296807E+02  0.55952236706E+02  0.20532420309E+03  0.27651057537E+03  0.17200000000E+03 0.  1.
         -6    1    1    2    0  502 -0.39817296807E+02 -0.55952236706E+02  0.58325975640E+03  0.61195752577E+03  0.17200000000E+03 0.  1.
</event>
<event>
 4    1  0.5701701E+000  0.1721285E+03  0.7818608E-02  0.1175646E+00
         21   -1    0    0  503  502  0.00000000000E+00  0.00000000000E+00  0.49866293133E+03  0.49866293133E+03  0.00000000000E+00 0.  1.
         21   -1    0    0  501  503 -0.00000000000E+00 -0.00000000000E+00 -0.18194085750E+03  0.18194085750E+03  0.00000000000E+00 0.  1.
          6    1    1    2  501    0 -0.62948501690E+01 -0.21401813212E+01 -0.12090144883E+03  0.21034582441E+03  0.17200000000E+03 0.  1.
         -6    1    1    2    0  502  0.62948501690E+01  0.21401813212E+01  0.43762352266E+03  0.47025796442E+03  0.17200000000E+03 0.  1.
</event>
<event>
 4    1  0.5701701E+000  0.1903225E+03  0.7818608E-02  0.1158171E+00
         21   -1    0    0  501  502  0.00000000000E+00  0.00000000000E+00  0.62458746993E+03  0.62458746993E+03  0.00000000000E+00 0.  1.
         21   -1    0    0  502  503 -0.00000000000E+00 -0.00000000000E+00 -0.64145993172E+02  0.64145993172E+02  0.00000000000E+00 0.  1.
          6    1    1    2  501    0  0.81157095799E+02  0.72244860769E+01  0.38686194119E+03  0.43114362913E+03  0.17200000000E+03 0. -1.
         -6    1    1    2    0  503 -0.81157095799E+02 -0.72244860769E+01  0.17357953557E+03  0.25758983397E+03  0.17200000000E+03 0. -1.
</event>
<event>
 4    1  0.5701701E+000  0.1996204E+03  0.7818608E-02  0.1150060E+00
         21   -1    0    0  503  502  0.00000000000E+00  0.00000000000E+00  0.29618794261E+03  0.29618794261E+03  0.00000000000E+00 0. -1.
         21   -1    0    0  501  503 -0.00000000000E+00 -0.00000000000E+00 -0.15984170317E+03  0.15984170317E+03  0.00000000000E+00 0. -1.
          6    1    1    2  501    0 -0.71916601311E+02 -0.71360340890E+02 -0.22549787445E+02  0.20088999156E+03  0.17200000000E+03 0. -1.
         -6    1    1    2    0  502  0.71916601311E+02  0.71360340890E+02  0.15889602688E+03  0.25513965422E+03  0.17200000000E+03 0. -1.
</event>
<event>
 4    1  0.5701701E+000  0.2237093E+03  0.7818608E-02  0.1131147E+00
         21   -1    0    0  503  502  0.00000000000E+00  0.00000000000E+00  0.43973552480E+03  0.43973552480E+03  0.00000000000E+00 0. -1.
         21   -1    0    0  501  503 -0.00000000000E+00 -0.00000000000E+00 -0.11466846042E+03  0.11466846042E+03  0.00000000000E+00 0. -1.
          6    1    1    2  501    0 -0.10645177314E+03  0.95550396849E+02  0.13853479187E+03  0.26313066507E+03  0.17200000000E+03 0. -1.
         -6    1    1    2    0  502  0.10645177314E+03 -0.95550396849E+02  0.18653227251E+03  0.29127332015E+03  0.17200000000E+03 0. -1.
</event>
<event>
 4    1  0.5701701E+000  0.2222406E+03  0.7818608E-02  0.1132224E+00
         21   -1    0    0  503  502  0.00000000000E+00  0.00000000000E+00  0.32445609657E+03  0.32445609657E+03  0.00000000000E+00 0. -1.
         21   -1    0    0  501  503 -0.00000000000E+00 -0.00000000000E+00 -0.15237581818E+03  0.15237581818E+03  0.00000000000E+00 0. -1.
          6    1    1    2  501    0  0.11127153499E+03 -0.86171525999E+02  0.78582217216E+02  0.23572452409E+03  0.17200000000E+03 0.  1.
         -6    1    1    2    0  502 -0.11127153499E+03  0.86171525999E+02  0.93498061175E+02  0.24110739067E+03  0.17200000000E+03 0.  1.
</event>
<event>
 4    1  0.5701701E+000  0.1814227E+03  0.7818608E-02  0.1166433E+00
         21   -1    0    0  503  502  0.00000000000E+00  0.00000000000E+00  0.39046393251E+03  0.39046393251E+03  0.00000000000E+00 0. -1.
         21   -1    0    0  501  503 -0.00000000000E+00 -0.00000000000E+00 -0.84330754409E+02  0.84330754409E+02  0.00000000000E+00 0. -1.
          6    1    1    2  501    0 -0.32309562380E+02 -0.47815035882E+02  0.15794981975E+03  0.24054590214E+03  0.17200000000E+03 0. -1.
         -6    1    1    2    0  502  0.32309562380E+02  0.47815035882E+02  0.14818335835E+03  0.23424878478E+03  0.17200000000E+03 0. -1.
</event>
<event>
 4    1  0.5701701E+000  0.2536713E+03  0.7818608E-02  0.1111006E+00
         21   -1    0    0  503  502  0.00000000000E+00  0.00000000000E+00  0.51309277435E+03  0.51309277435E+03  0.00000000000E+00 0. -1.
         21   -1    0    0  501  503 -0.00000000000E+00 -0.00000000000E+00 -0.12579586951E+03  0.12579586951E+03  0.00000000000E+00 0. -1.
          6    1    1    2  501    0  0.15568328011E+03 -0.10260529843E+03  0.21124361779E+03  0.33011058303E+03  0.17200000000E+03 0. -1.
         -6    1    1    2    0  502 -0.15568328011E+03  0.10260529843E+03  0.17605328705E+03  0.30877806083E+03  0.17200000000E+03 0. -1.
</event>
<event>
 4    1  0.5701701E+000  0.1924150E+03  0.7818608E-02  0.1156301E+00
         21   -1    0    0  503  502  0.00000000000E+00  0.00000000000E+00  0.53680450342E+03  0.53680450342E+03  0.00000000000E+00 0.  1.
         21   -1    0    0  501  503 -0.00000000000E+00 -0.00000000000E+00 -0.84005034968E+02  0.84005034968E+02  0.00000000000E+00 0.  1.
          6    1    1    2  501    0 -0.76681727286E+02  0.39489690776E+02  0.95081565725E+02  0.21462531798E+03  0.17200000000E+03 0.  1.
         -6    1    1    2    0  502  0.76681727286E+02 -0.39489690776E+02  0.35771790272E+03  0.40618422041E+03  0.17200000000E+03 0.  1.
</event>
<event>
 4    1  0.5701701E+000  0.1774092E+03  0.7818608E-02  0.1170334E+00
         21   -1    0    0  501  502  0.00000000000E+00  0.00000000000E+00  0.93398959055E+03  0.93398959055E+03  0.00000000000E+00 0.  1.
         21   -1    0    0  502  503 -0.00000000000E+00 -0.00000000000E+00 -0.43359116105E+02  0.43359116105E+02  0.00000000000E+00 0.  1.
          6    1    1    2  501    0  0.34046770275E+02 -0.27034208761E+02  0.67598048224E+03  0.69887312395E+03  0.17200000000E+03 0.  1.
         -6    1    1    2    0  503 -0.34046770275E+02  0.27034208761E+02  0.21464999220E+03  0.27847558270E+03  0.17200000000E+03 0.  1.
</event>
<event>
 4    1  0.5701701E+000  0.3076757E+03  0.7818608E-02  0.1081465E+00
         21   -1    0    0  501  502  0.00000000000E+00  0.00000000000E+00  0.21816426351E+03  0.21816426351E+03  0.00000000000E+00 0.  1.
         21   -1    0    0  502  503 -0.00000000000E+00 -0.00000000000E+00 -0.50255180679E+03  0.50255180679E+03  0.00000000000E+00 0. -1.
          6    1    1    2  501    0 -0.25368760808E+03 -0.26887459196E+02 -0.90170716685E+01  0.30780780617E+03  0.17200000000E+03 0.  1.
         -6    1    1    2    0  503  0.25368760808E+03  0.26887459196E+02 -0.27537047161E+03  0.41290826413E+03  0.17200000000E+03 0.  1.
</event>
<event>
 4    1  0.5701701E+000  0.2383486E+03  0.7818608E-02  0.1120898E+00
         21   -1    0    0  503  502  0.00000000000E+00  0.00000000000E+00  0.30857735797E+03  0.30857735797E+03  0.00000000000E+00 0. -1.
         21   -1    0    0  501  503 -0.00000000000E+00 -0.00000000000E+00 -0.74524823617E+03  0.74524823617E+03  0.00000000000E+00 0.  1.
          6    1    1    2  501    0 -0.16441127751E+03 -0.13963053314E+02 -0.67555614090E+03  0.71637011002E+03  0.17200000000E+03 0.  1.
         -6    1    1    2    0  502  0.16441127751E+03  0.13963053314E+02  0.23888526270E+03  0.33745548412E+03  0.17200000000E+03 0. -1.
</event>
<event>
 4    1  0.5701701E+000  0.2048665E+03  0.7818608E-02  0.1145697E+00
         21   -1    0    0  503  502  0.00000000000E+00  0.00000000000E+00  0.35163033841E+02  0.35163033841E+02  0.00000000000E+00 0.  1.
         21   -1    0    0  501  503 -0.00000000000E+00 -0.00000000000E+00 -0.11936055074E+04  0.11936055074E+04  0.00000000000E+00 0.  1.
          6    1    1    2  501    0 -0.17864692294E+02 -0.10985052267E+03 -0.57708737961E+03  0.61237254042E+03  0.17200000000E+03 0.  1.
         -6    1    1    2    0  502  0.17864692294E+02  0.10985052267E+03 -0.58135509396E+03  0.61639600083E+03  0.17200000000E+03 0.  1.
</event>
<event>
 4    1  0.5701701E+000  0.1911395E+03  0.7818608E-02  0.1157438E+00
         21   -1    0    0  501  502  0.00000000000E+00  0.00000000000E+00  0.15916217324E+03  0.15916217324E+03  0.00000000000E+00 0. -1.
         21   -1    0    0  502  503 -0.00000000000E+00 -0.00000000000E+00 -0.23004017110E+03  0.23004017110E+03  0.00000000000E+00 0.  1.
          6    1    1    2  501    0 -0.33013220089E+02  0.76553374307E+02 -0.44501304693E+02  0.19625151703E+03  0.17200000000E+03 0.  1.
         -6    1    1    2    0  503  0.33013220089E+02 -0.76553374307E+02 -0.26376693169E+02  0.19295082731E+03  0.17200000000E+03 0. -1.
</event>
<event>
 4    1  0.5701701E+000  0.2054062E+03  0.7818608E-02  0.1145256E+00
         21   -1    0    0  501  502  0.00000000000E+00  0.00000000000E+00  0.14031421785E+03  0.14031421785E+03  0.00000000000E+00 0.  1.
         21   -1    0    0  502  503 -0.00000000000E+00 -0.00000000000E+00 -0.50631531758E+03  0.50631531758E+03  0.00000000000E+00 0.  1.
          6    1    1    2  501    0  0.85710809313E+02  0.72535340604E+02  0.23038013363E+02  0.20669414247E+03  0.17200000000E+03 0.  1.
         -6    1    1    2    0  503 -0.85710809313E+02 -0.72535340604E+02 -0.38903911309E+03  0.43993539296E+03  0.17200000000E+03 0.  1.
</event>
<event>
 4    1  0.5701701E+000  0.2266346E+03  0.7818608E-02  0.1129031E+00
         21   -1    0    0  501  502  0.00000000000E+00  0.00000000000E+00  0.34239505472E+03  0.34239505472E+03  0.00000000000E+00 0. -1.
         21   -1    0    0  502  503 -0.00000000000E+00 -0.00000000000E+00 -0.15049067408E+03  0.15049067408E+03  0.00000000000E+00 0. -1.
          6    1    1    2  501    0  0.12974067031E+03  0.70332208242E+02  0.82048769381E+02  0.24102958658E+03  0.17200000000E+03 0. -1.
         -6    1    1    2    0  503 -0.12974067031E+03 -0.70332208242E+02  0.10985561125E+03  0.25185614222E+03  0.17200000000E+03 0. -1.
</event>
<event>
 4    1  0.5701701E+000  0.1792602E+03  0.7818608E-02  0.1168521E+00
         21   -1    0    0  501  502  0.00000000000E+00  0.00000000000E+00  0.10272664066E+03  0.10272664066E+03  0.00000000000E+00 0.  1.
         21   -1    0    0  502  503 -0.00000000000E+00 -0.00000000000E+00 -0.86792162158E+03  0.86792162158E+03  0.00000000000E+00 0.  1.
          6    1    1    2  501    0  0.44816546269E+02  0.23274267747E+02  0.55356020325E+01  0.17934563627E+03  0.17200000000E+03 0.  1.
         -6    1    1    2    0  503 -0.44816546269E+02 -0.23274267747E+02 -0.77073058295E+03  0.79130262596E+03  0.17200000000E+03 0.  1.
</event>
<event>
 4    1  0.5701701E+000  0.1821724E+03  0.7818608E-02  0.1165717E+00
         21   -1    0    0  501  502  0.00000000000E+00  0.00000000000E+00  0.35915622720E+03  0.35915622720E+03  0.00000000000E+00 0.  1.
         21   -1    0    0  502  503 -0.00000000000E+00 -0.00000000000E+00 -0.18266803467E+03  0.18266803467E+03  0.00000000000E+00 0.  1.
          6    1    1    2  501    0 -0.30487022611E+02 -0.51704033776E+02  0.27868458025E+03  0.33294423095E+03  0.17200000000E+03 0.  1.
         -6    1    1    2    0  503  0.30487022611E+02  0.51704033776E+02 -0.10219638772E+03  0.20888003092E+03  0.17200000000E+03 0.  1.
</event>
<event>
 4    1  0.5701701E+000  0.1748789E+03  0.7818608E-02  0.1172853E+00
         21   -1    0    0  503  502  0.00000000000E+00  0.00000000000E+00  0.10584303372E+03  0.10584303372E+03  0.00000000000E+00 0.  1.
         21   -1    0    0  501  503 -0.00000000000E+00 -0.00000000000E+00 -0.31079262105E+03  0.31079262105E+03  0.00000000000E+00 0.  1.
          6    1    1    2  501    0 -0.22653573934E+01  0.31519927304E+02 -0.15770922066E+03  0.23548850490E+03  0.17200000000E+03 0.  1.
         -6    1    1    2    0  502  0.22653573934E+01 -0.31519927304E+02 -0.47240366667E+02  0.18114714987E+03  0.17200000000E+03 0.  1.
</event>
<event>
 4    1  0.5701701E+000  0.2365233E+03  0.7818608E-02  0.1122131E+00
         21   -1    0    0  503  502  0.00000000000E+00  0.00000000000E+00  0.16203213045E+03  0.16203213045E+03  0.00000000000E+00 0.  1.
         21   -1    0    0  501  503 -0.00000000000E+00 -0.00000000000E+00 -0.36048835643E+03  0.36048835643E+03  0.00000000000E+00 0.  1.
          6    1    1    2  501    0 -0.38497300408E+02 -0.15772522382E+03 -0.15292481612E+03  0.28165455394E+03  0.17200000000E+03 0. -1.
         -6    1    1    2    0  502  0.38497300408E+02  0.15772522382E+03 -0.45531409859E+02  0.24086593294E+03  0.17200000000E+03 0. -1.
</event>
<event>
 4    1  0.5701701E+000  0.3417875E+03  0.7818608E-02  0.1066037E+00
         21   -1    0    0  501  502  0.00000000000E+00  0.00000000000E+00  0.10610302259E+03  0.10610302259E+03  0.00000000000E+00 0. -1.
         21   -1    0    0  502  503 -0.00000000000E+00 -0.00000000000E+00 -0.13979489055E+04  0.13979489055E+04  0.00000000000E+00 0.  1.
          6    1    1    2  501    0 -0.33351823248E+02 -0.29346606188E+03 -0.29931919813E+03  0.45432439507E+03  0.17200000000E+03 0.  1.
         -6    1    1    2    0  503  0.33351823248E+02  0.29346606188E+03 -0.99252668480E+03  0.10497275330E+04  0.17200000000E+03 0. -1.
</event>
<event>
 4    1  0.5701701E+000  0.2267737E+03  0.7818608E-02  0.1128931E+00
         21   -1    0    0  503  502  0.00000000000E+00  0.00000000000E+00  0.73032429676E+02  0.73032429676E+02  0.00000000000E+00 0. -1.
         21   -1    0    0  501  503 -0.00000000000E+00 -0.00000000000E+00 -0.11487758669E+04  0.11487758669E+04  0.00000000000E+00 0.  1.
          6    1    1    2  501    0  0.10105577204E+03 -0.10784258671E+03 -0.91792929371E+03  0.94552656272E+03  0.17200000000E+03 0. -1.
         -6    1    1    2    0  502 -0.10105577204E+03  0.10784258671E+03 -0.15781414353E+03  0.27628173387E+03  0.17200000000E+03 0. -1.
</event>
<event>
 4    1  0.5701701E+000  0.1789085E+03  0.7818608E-02  0.1168864E+00
         21   -1    0    0  503  502  0.00000000000E+00  0.00000000000E+00  0.41433003538E+03  0.41433003538E+03  0.00000000000E+00 0. -1.
         21   -1    0    0  501  503 -0.00000000000E+00 -0.00000000000E+00 -0.78086827109E+02  0.78086827109E+02  0.00000000000E+00 0. -1.
          6    1    1    2  501    0 -0.21512220500E+02  0.44288646791E+02  0.14268035478E+03  0.22883606251E+03  0.17200000000E+03 0. -1.
         -6    1    1    2    0  502  0.21512220500E+02 -0.44288646791E+02  0.19356285350E+03  0.26358079998E+03  0.17200000000E+03 0. -1.
</event>
<event>
 4    1  0.5701701E+000  0.1901424E+03  0.7818608E-02  0.1158333E+00
         21   -1    0    0  501  502  0.00000000000E+00  0.00000000000E+00  0.55888175530E+03  0.55888175530E+03  0.00000000000E+00 0.  1.
         21   -1    0    0  502  503 -0.00000000000E+00 -0.00000000000E+00 -0.65127344194E+02  0.65127344194E+02  0.00000000000E+00 0. -1.
          6    1    1    2  501    0  0.24332699774E+02  0.77317778787E+02  0.27244180525E+03  0.33223283468E+03  0.17200000000E+03 0.  1.
         -6    1    1    2    0  503 -0.24332699774E+02 -0.77317778787E+02  0.22131260586E+03  0.29177626481E+03  0.17200000000E+03 0.  1.
</event>
<event>
 4    1  0.5701701E+000  0.1748819E+03  0.7818608E-02  0.1172850E+00
         21   -1    0    0  501  502  0.00000000000E+00  0.00000000000E+00  0.41605095006E+02  0.41605095006E+02  0.00000000000E+00 0. -1.
         21   -1    0    0  502  503 -0.00000000000E+00 -0.00000000000E+00 -0.75203161090E+03  0.75203161090E+03  0.00000000000E+00 0. -1.
          6    1    1    2  501    0  0.21257056654E+02  0.23405791148E+02 -0.29566238567E+03  0.34351119314E+03  0.17200000000E+03 0. -1.
         -6    1    1    2    0  503 -0.21257056654E+02 -0.23405791148E+02 -0.41476413023E+03  0.45012551277E+03  0.17200000000E+03 0. -1.
</event>
<event>
 4    1  0.5701701E+000  0.2577878E+03  0.7818608E-02  0.1108480E+00
         21   -1    0    0  501  502  0.00000000000E+00  0.00000000000E+00  0.65298135132E+03  0.65298135132E+03  0.00000000000E+00 0. -1.
         21   -1    0    0  502  503 -0.00000000000E+00 -0.00000000000E+00 -0.14410034778E+03  0.14410034778E+03  0.00000000000E+00 0.  1.
          6    1    1    2  501    0 -0.15185928476E+03 -0.11751311585E+03  0.47044412711E+03  0.53644408049E+03  0.17200000000E+03 0. -1.
         -6    1    1    2    0  503  0.15185928476E+03  0.11751311585E+03  0.38436876427E+02  0.26063761861E+03  0.17200000000E+03 0.  1.
</event>
<event>
 4    1  0.5701701E+000  0.2031176E+03  0.7818608E-02  0.1147135E+00
         21   -1    0    0  501  502  0.00000000000E+00  0.00000000000E+00  0.15202555708E+04  0.15202555708E+04  0.00000000000E+00 0.  1.
         21   -1    0    0  502  503 -0.00000000000E+00 -0.00000000000E+00 -0.49596078066E+02  0.49596078066E+02  0.00000000000E+00 0.  1.
          6    1    1    2  501    0  0.41962171754E+02  0.99558693153E+02  0.12635205707E+04  0.12797425482E+04  0.17200000000E+03 0.  1.
         -6    1    1    2    0  503 -0.41962171754E+02 -0.99558693153E+02  0.20713892208E+03  0.29010910065E+03  0.17200000000E+03 0.  1.
</event>
<event>
 4    1  0.5701701E+000  0.1817391E+03  0.7818608E-02  0.1166130E+00
         21   -1    0    0  503  502  0.00000000000E+00  0.00000000000E+00  0.29384383632E+03  0.29384383632E+03  0.00000000000E+00 0. -1.
         21   -1    0    0  501  503 -0.00000000000E+00 -0.00000000000E+00 -0.18260185895E+03  0.18260185895E+03  0.00000000000E+00 0.  1.
          6    1    1    2  501    0  0.58688911876E+02  0.84945461862E+00 -0.92083581525E+02  0.20373633926E+03  0.17200000000E+03 0.  1.
         -6    1    1    2    0  502 -0.58688911876E+02 -0.84945461862E+00  0.20332555890E+03  0.27270935600E+03  0.17200000000E+03 0. -1.
</event>
<event>
 4    1  0.5701701E+000  0.1791596E+03  0.7818608E-02  0.1168619E+00
         21   -1    0    0  501  502  0.00000000000E+00  0.00000000000E+00  0.24058593469E+03  0.24058593469E+03  0.00000000000E+00 0.  1.
         21   -1    0    0  502  503 -0.00000000000E+00 -0.00000000000E+00 -0.13613866565E+03  0.13613866565E+03  0.00000000000E+00 0.  1.
          6    1    1    2  501    0 -0.13344489483E+01  0.50123733225E+02  0.25588888005E+02  0.18097779028E+03  0.17200000000E+03 0.  1.
         -6    1    1    2    0  503  0.13344489483E+01 -0.50123733225E+02  0.78858381035E+02  0.19574681005E+03  0.17200000000E+03 0.  1.
</event>
<event>
 4    1  0.5701701E+000  0.1801698E+03  0.7818608E-02  0.1167639E+00
         21   -1    0    0  503  502  0.00000000000E+00  0.00000000000E+00  0.14806185971E+03  0.14806185971E+03  0.00000000000E+00 0.  1.
         21   -1    0    0  501  503 -0.00000000000E+00 -0.00000000000E+00 -0.23111447366E+03  0.23111447366E+03  0.00000000000E+00 0.  1.
          6    1    1    2  501    0  0.25447210939E+02  0.47218693870E+02 -0.84499193767E+02  0.19900070186E+03  0.17200000000E+03 0. -1.
         -6    1    1    2    0  502 -0.25447210939E+02 -0.47218693870E+02  0.14465798154E+01  0.18017563151E+03  0.17200000000E+03 0. -1.
</event>
<event>
 4    1  0.5701701E+000  0.1880710E+03  0.7818608E-02  0.1160213E+00
         21   -1    0    0  501  502  0.00000000000E+00  0.00000000000E+00  0.34703726765E+02  0.34703726765E+02  0.00000000000E+00 0. -1.
         21   -1    0    0  502  503 -0.00000000000E+00 -0.00000000000E+00 -0.13005367059E+04  0.13005367059E+04  0.00000000000E+00 0. -1.
          6    1    1    2  501    0  0.40273119856E+02  0.64534967955E+02 -0.32241266087E+03  0.37325676171E+03  0.17200000000E+03 0. -1.
         -6    1    1    2    0  503 -0.40273119856E+02 -0.64534967955E+02 -0.94342031826E+03  0.96198367095E+03  0.17200000000E+03 0. -1.
</event>
<event>
 4    1  0.5701701E+000  0.2095590E+03  0.7818608E-02  0.1141916E+00
         21   -1    0    0  503  502  0.00000000000E+00  0.00000000000E+00  0.11439238158E+03  0.11439238158E+03  0.00000000000E+00 0. -1.
         21   -1    0    0  501  503 -0.00000000000E+00 -0.00000000000E+00 -0.41128841070E+03  0.41128841070E+03  0.00000000000E+00 0. -1.
          6    1    1    2  501    0  0.10665460197E+02  0.11923599377E+03 -0.21627779079E+03  0.30114955926E+03  0.17200000000E+03 0. -1.
         -6    1    1    2    0  502 -0.10665460197E+02 -0.11923599377E+03 -0.80618238322E+02  0.22453123302E+03  0.17200000000E+03 0. -1.
</event>
<event>
 4    1  0.5701701E+000  0.2373853E+03  0.7818608E-02  0.1121547E+00
         21   -1    0    0  503  502  0.00000000000E+00  0.00000000000E+00  0.24399008293E+03  0.24399008293E+03  0.00000000000E+00 0.  1.
         21   -1    0    0  501  503 -0.00000000000E+00 -0.00000000000E+00 -0.23112162773E+03  0.23112162773E+03  0.00000000000E+00 0.  1.
          6    1    1    2  501    0 -0.12985156340E+03 -0.99530696415E+02  0.13929787026E+00  0.23738535644E+03  0.17200000000E+03 0.  1.
         -6    1    1    2    0  502  0.12985156340E+03  0.99530696415E+02  0.12729157332E+02  0.23772635423E+03  0.17200000000E+03 0.  1.
</event>
<event>
 4    1  0.5701701E+000  0.1849452E+03  0.7818608E-02  0.1163101E+00
         21   -1    0    0  503  502  0.00000000000E+00  0.00000000000E+00  0.48813692207E+03  0.48813692207E+03  0.00000000000E+00 0.  1.
         21   -1    0    0  501  503 -0.00000000000E+00 -0.00000000000E+00 -0.77618768796E+02  0.77618768796E+02  0.00000000000E+00 0.  1.
          6    1    1    2  501    0 -0.17743998688E+02 -0.65619175968E+02  0.11705343615E+03  0.21887492469E+03  0.17200000000E+03 0.  1.
         -6    1    1    2    0  502  0.17743998688E+02  0.65619175968E+02  0.29346471713E+03  0.34688076618E+03  0.17200000000E+03 0.  1.
</event>
<event>
 4    1  0.5701701E+000  0.2920606E+03  0.7818608E-02  0.1089278E+00
         21   -1    0    0  501  502  0.00000000000E+00  0.00000000000E+00  0.84884196384E+03  0.84884196384E+03  0.00000000000E+00 0.  1.
         21   -1    0    0  502  503 -0.00000000000E+00 -0.00000000000E+00 -0.13394379752E+03  0.13394379752E+03  0.00000000000E+00 0.  1.
          6    1    1    2  501    0 -0.22305162690E+03 -0.77222707943E+02  0.60303080181E+03  0.67003397139E+03  0.17200000000E+03 0.  1.
         -6    1    1    2    0  503  0.22305162690E+03  0.77222707943E+02  0.11186736450E+03  0.31275178996E+03  0.17200000000E+03 0.  1.
</event>
<event>
 4    1  0.5701701E+000  0.2244071E+03  0.7818608E-02  0.1130639E+00
         21   -1    0    0  501  502  0.00000000000E+00  0.00000000000E+00  0.38680747447E+02  0.38680747447E+02  0.00000000000E+00 0.  1.
         21   -1    0    0  502  503 -0.00000000000E+00 -0.00000000000E+00 -0.23546194656E+04  0.23546194656E+04  0.00000000000E+00 0. -1.
          6    1    1    2  501    0 -0.30265907040E+02 -0.14092031129E+03 -0.35783550985E+03  0.42237993723E+03  0.17200000000E+03 0.  1.
         -6    1    1    2    0  503  0.30265907040E+02  0.14092031129E+03 -0.19581032083E+04  0.19709202758E+04  0.17200000000E+03 0. -1.
</event>
<event>
 4    1  0.5701701E+000  0.1936219E+03  0.7818608E-02  0.1155235E+00
         21   -1    0    0  503  502  0.00000000000E+00  0.00000000000E+00  0.15301930315E+03  0.15301930315E+03  0.00000000000E+00 0. -1.
         21   -1    0    0  501  503 -0.00000000000E+00 -0.00000000000E+00 -0.30990138145E+03  0.30990138145E+03  0.00000000000E+00 0. -1.
          6    1    1    2  501    0 -0.30889743363E+02 -0.83374314335E+02 -0.18436588880E+03  0.26735787531E+03  0.17200000000E+03 0. -1.
         -6    1    1    2    0  502  0.30889743363E+02  0.83374314335E+02  0.27483810498E+02  0.19556280928E+03  0.17200000000E+03 0. -1.
</event>
<event>
 4    1  0.5701701E+000  0.2156449E+03  0.7818608E-02  0.1137172E+00
         21   -1    0    0  503  502  0.00000000000E+00  0.00000000000E+00  0.26748333435E+03  0.26748333435E+03  0.00000000000E+00 0.  1.
         21   -1    0    0  501  503 -0.00000000000E+00 -0.00000000000E+00 -0.17944337538E+03  0.17944337538E+03  0.00000000000E+00 0.  1.
          6    1    1    2  501    0 -0.12290096683E+03 -0.42591772698E+02  0.83463324691E+02  0.23123328765E+03  0.17200000000E+03 0.  1.
         -6    1    1    2    0  502  0.12290096683E+03  0.42591772698E+02  0.45766342770E+01  0.21569342208E+03  0.17200000000E+03 0.  1.
</event>
<event>
 4    1  0.5701701E+000  0.2061065E+03  0.7818608E-02  0.1144687E+00
         21   -1    0    0  501  502  0.00000000000E+00  0.00000000000E+00  0.16156743232E+03  0.16156743232E+03  0.00000000000E+00 0.  1.
         21   -1    0    0  502  503 -0.00000000000E+00 -0.00000000000E+00 -0.56382577464E+03  0.56382577464E+03  0.00000000000E+00 0.  1.
          6    1    1    2  501    0  0.30529374873E+02  0.10937937638E+03  0.63832888001E+02  0.21576498395E+03  0.17200000000E+03 0.  1.
         -6    1    1    2    0  503 -0.30529374873E+02 -0.10937937638E+03 -0.46609123032E+03  0.50962822301E+03  0.17200000000E+03 0.  1.
</event>
<event>
 4    1  0.5701701E+000  0.1963431E+03  0.7818608E-02  0.1152861E+00
         21   -1    0    0  503  502  0.00000000000E+00  0.00000000000E+00  0.61183705061E+02  0.61183705061E+02  0.00000000000E+00 0. -1.
         21   -1    0    0  501  503 -0.00000000000E+00 -0.00000000000E+00 -0.67307013655E+03  0.67307013655E+03  0.00000000000E+00 0. -1.
          6    1    1    2  501    0  0.89546544427E+02 -0.30790320261E+02 -0.39872668399E+03  0.44444751767E+03  0.17200000000E+03 0. -1.
         -6    1    1    2    0  502 -0.89546544427E+02  0.30790320261E+02 -0.21315974750E+03  0.28980632394E+03  0.17200000000E+03 0. -1.
</event>
<event>
 4    1  0.5701701E+000  0.1867010E+03  0.7818608E-02  0.1161471E+00
         21   -1    0    0  501  502  0.00000000000E+00  0.00000000000E+00  0.29693801550E+03  0.29693801550E+03  0.00000000000E+00 0.  1.
         21   -1    0    0  502  503 -0.00000000000E+00 -0.00000000000E+00 -0.34224371155E+03  0.34224371155E+03  0.00000000000E+00 0.  1.
          6    1    1    2  501    0  0.47757938242E+01 -0.72459925196E+02  0.23639359769E+03  0.30122945074E+03  0.17200000000E+03 0. -1.
         -6    1    1    2    0  503 -0.47757938242E+01  0.72459925196E+02 -0.28169929374E+03  0.33795227630E+03  0.17200000000E+03 0. -1.
</event>
<event>
 4    1  0.5701701E+000  0.2156125E+03  0.7818608E-02  0.1137197E+00
         21   -1    0    0  501  502  0.00000000000E+00  0.00000000000E+00  0.87912003564E+03  0.87912003564E+03  0.00000000000E+00 0.  1.
         21   -1    0    0  502  503 -0.00000000000E+00 -0.00000000000E+00 -0.67366887464E+02  0.67366887464E+02  0.00000000000E+00 0.  1.
          6    1    1    2  501    0 -0.41450026455E+02  0.12323409195E+03  0.62532574436E+03  0.66145372678E+03  0.17200000000E+03 0.  1.
         -6    1    1    2    0  503  0.41450026455E+02 -0.12323409195E+03  0.18642740382E+03  0.28503319632E+03  0.17200000000E+03 0.  1.
</event>
<event>
 4    1  0.5701701E+000  0.1978732E+03  0.7818608E-02  0.1151546E+00
         21   -1    0    0  503  502  0.00000000000E+00  0.00000000000E+00  0.32677965626E+03  0.32677965626E+03  0.00000000000E+00 0.  1.
         21   -1    0    0  501  503 -0.00000000000E+00 -0.00000000000E+00 -0.12767750729E+03  0.12767750729E+03  0.00000000000E+00 0. -1.
          6    1    1    2  501    0 -0.97070641791E+02  0.12128901231E+02  0.43170975463E+02  0.20252790639E+03  0.17200000000E+03 0. -1.
         -6    1    1    2    0  502  0.97070641791E+02 -0.12128901231E+02  0.15593117351E+03  0.25192925716E+03  0.17200000000E+03 0.  1.
</event>
<event>
 4    1  0.5701701E+000  0.2180720E+03  0.7818608E-02  0.1135329E+00
         21   -1    0    0  501  502  0.00000000000E+00  0.00000000000E+00  0.53601748023E+03  0.53601748023E+03  0.00000000000E+00 0. -1.
         21   -1    0    0  502  503 -0.00000000000E+00 -0.00000000000E+00 -0.17902603131E+03  0.17902603131E+03  0.00000000000E+00 0. -1.
          6    1    1    2  501    0  0.69690880767E+02 -0.11451883646E+03  0.43241937658E+03  0.48429526119E+03  0.17200000000E+03 0. -1.
         -6    1    1    2    0  503 -0.69690880767E+02  0.11451883646E+03 -0.75427927663E+02  0.23074825035E+03  0.17200000000E+03 0. -1.
</event>
<event>
 4    1  0.5701701E+000  0.1744859E+03  0.7818608E-02  0.1173249E+00
         21   -1    0    0  503  502  0.00000000000E+00  0.00000000000E+00  0.28768507492E+03  0.28768507492E+03  0.00000000000E+00 0.  1.
         21   -1    0    0  501  503 -0.00000000000E+00 -0.00000000000E+00 -0.12184549277E+03  0.12184549277E+03  0.00000000000E+00 0.  1.
          6    1    1    2  501    0  0.74925743444E+01  0.28375609744E+02  0.86793602800E+01  0.17470158898E+03  0.17200000000E+03 0.  1.
         -6    1    1    2    0  502 -0.74925743444E+01 -0.28375609744E+02  0.15716022188E+03  0.23482897870E+03  0.17200000000E+03 0.  1.
</event>
<event>
 4    1  0.5701701E+000  0.2670168E+03  0.7818608E-02  0.1102999E+00
         21   -1    0    0  503  502  0.00000000000E+00  0.00000000000E+00  0.13018587770E+03  0.13018587770E+03  0.00000000000E+00 0. -1.
         21   -1    0    0  501  503 -0.00000000000E+00 -0.00000000000E+00 -0.58182396527E+03  0.58182396527E+03  0.00000000000E+00 0. -1.
          6    1    1    2  501    0 -0.19685236270E+03 -0.54434722933E+02 -0.31208215122E+03  0.41072285166E+03  0.17200000000E+03 0. -1.
         -6    1    1    2    0  502  0.19685236270E+03  0.54434722933E+02 -0.13955593635E+03  0.30128699131E+03  0.17200000000E+03 0. -1.
</event>
<event>
 4    1  0.5701701E+000  0.1858344E+03  0.7818608E-02  0.1162273E+00
         21   -1    0    0  503  502  0.00000000000E+00  0.00000000000E+00  0.81363240062E+02  0.81363240062E+02  0.00000000000E+00 0. -1.
         21   -1    0    0  501  503 -0.00000000000E+00 -0.00000000000E+00 -0.20792586807E+04  0.20792586807E+04  0.00000000000E+00 0. -1.
          6    1    1    2  501    0 -0.25513714545E+02  0.65570271278E+02 -0.19627074289E+04  0.19714854455E+04  0.17200000000E+03 0. -1.
         -6    1    1    2    0  502  0.25513714545E+02 -0.65570271278E+02 -0.35188011662E+02  0.18913647525E+03  0.17200000000E+03 0. -1.
</event>
<event>
 4    1  0.5701701E+000  0.2237662E+03  0.7818608E-02  0.1131106E+00
         21   -1    0    0  503  502  0.00000000000E+00  0.00000000000E+00  0.23490042993E+03  0.23490042993E+03  0.00000000000E+00 0.  1.
         21   -1    0    0  501  503 -0.00000000000E+00 -0.00000000000E+00 -0.21862797268E+03  0.21862797268E+03  0.00000000000E+00 0. -1.
          6    1    1    2  501    0  0.60380743926E+02  0.12977467022E+03 -0.27726861772E+02  0.22547744484E+03  0.17200000000E+03 0. -1.
         -6    1    1    2    0  502 -0.60380743926E+02 -0.12977467022E+03  0.43999319027E+02  0.22805095778E+03  0.17200000000E+03 0. -1.
</event>
<event>
 4    1  0.5701701E+000  0.1904521E+03  0.7818608E-02  0.1158054E+00
         21   -1    0    0  501  502  0.00000000000E+00  0.00000000000E+00  0.76352390144E+03  0.76352390144E+03  0.00000000000E+00 0. -1.
         21   -1    0    0  502  503 -0.00000000000E+00 -0.00000000000E+00 -0.63194676082E+02  0.63194676082E+02  0.00000000000E+00 0. -1.
          6    1    1    2  501    0  0.22740192693E+02  0.78555047707E+02  0.55612314104E+03  0.58783072384E+03  0.17200000000E+03 0. -1.
         -6    1    1    2    0  503 -0.22740192693E+02 -0.78555047707E+02  0.14420608431E+03  0.23888785368E+03  0.17200000000E+03 0. -1.
</event>
<event>
 4    1  0.5701701E+000  0.1924841E+03  0.7818608E-02  0.1156240E+00
         21   -1    0    0  503  502  0.00000000000E+00  0.00000000000E+00  0.41338418982E+03  0.41338418982E+03  0.00000000000E+00 0. -1.
         21   -1    0    0  501  503 -0.00000000000E+00 -0.00000000000E+00 -0.11793237069E+03  0.11793237069E+03  0.00000000000E+00 0. -1.
          6    1    1    2  501    0 -0.48506101278E+02  0.71507322067E+02  0.17575413552E+02  0.19328485231E+03  0.17200000000E+03 0. -1.
         -6    1    1    2    0  502  0.48506101278E+02 -0.71507322067E+02  0.27787640559E+03  0.33803170820E+03  0.17200000000E+03 0. -1.
</event>
<event>
 4    1  0.5701701E+000  0.1739417E+03  0.7818608E-02  0.1173799E+00
         21   -1    0    0  503  502  0.00000000000E+00  0.00000000000E+00  0.17128477241E+03  0.17128477241E+03  0.00000000000E+00 0.  1.
         21   -1    0    0  501  503 -0.00000000000E+00 -0.00000000000E+00 -0.20735710290E+03  0.20735710290E+03  0.00000000000E+00 0.  1.
          6    1    1    2  501    0  0.18374052291E+02 -0.18278832337E+02 -0.90903044297E+02  0.19626279569E+03  0.17200000000E+03 0.  1.
         -6    1    1    2    0  502 -0.18374052291E+02  0.18278832337E+02  0.54830713806E+02  0.18237907963E+03  0.17200000000E+03 0.  1.
</event>
<event>
 4    1  0.5701701E+000  0.3041423E+03  0.7818608E-02  0.1083188E+00
         21   -1    0    0  503  502  0.00000000000E+00  0.00000000000E+00  0.98717046951E+03  0.98717046951E+03  0.00000000000E+00 0. -1.
         21   -1    0    0  501  503 -0.00000000000E+00 -0.00000000000E+00 -0.11319029534E+03  0.11319029534E+03  0.00000000000E+00 0.  1.
          6    1    1    2  501    0  0.25066985538E+03 -0.91192035130E+01  0.20871575654E+03  0.36886962914E+03  0.17200000000E+03 0.  1.
         -6    1    1    2    0  502 -0.25066985538E+03  0.91192035130E+01  0.66526441762E+03  0.73149113571E+03  0.17200000000E+03 0. -1.
</event>
<event>
 4    1  0.5701701E+000  0.1859606E+03  0.7818608E-02  0.1162156E+00
         21   -1    0    0  503  502  0.00000000000E+00  0.00000000000E+00  0.26016284234E+03  0.26016284234E+03  0.00000000000E+00 0.  1.
         21   -1    0    0  501  503 -0.00000000000E+00 -0.00000000000E+00 -0.19710701647E+03  0.19710701647E+03  0.00000000000E+00 0.  1.
          6    1    1    2  501    0 -0.47458582670E+02 -0.52392886630E+02 -0.98941528890E+02  0.21064367491E+03  0.17200000000E+03 0.  1.
         -6    1    1    2    0  502  0.47458582670E+02  0.52392886630E+02  0.16199735476E+03  0.24662618391E+03  0.17200000000E+03 0.  1.
</event>
<event>
 4    1  0.5701701E+000  0.2413676E+03  0.7818608E-02  0.1118885E+00
         21   -1    0    0  503  502  0.00000000000E+00  0.00000000000E+00  0.11018943952E+03  0.11018943952E+03  0.00000000000E+00 0. -1.
         21   -1    0    0  501  503 -0.00000000000E+00 -0.00000000000E+00 -0.73217923559E+03  0.73217923559E+03  0.00000000000E+00 0.  1.
          6    1    1    2  501    0 -0.12753698633E+03  0.11139409512E+03 -0.53302518472E+03  0.58512748598E+03  0.17200000000E+03 0. -1.
         -6    1    1    2    0  502  0.12753698633E+03 -0.11139409512E+03 -0.88964611359E+02  0.25724118913E+03  0.17200000000E+03 0. -1.
</event>
<event>
 4    1  0.5701701E+000  0.1748777E+03  0.7818608E-02  0.1172855E+00
         21   -1    0    0  501  502  0.00000000000E+00  0.00000000000E+00  0.10807091753E+04  0.10807091753E+04  0.00000000000E+00 0. -1.
         21   -1    0    0  502  503 -0.00000000000E+00 -0.00000000000E+00 -0.31694529292E+02  0.31694529292E+02  0.00000000000E+00 0. -1.
          6    1    1    2  501    0  0.15731306099E+02 -0.27399815757E+02  0.70657769766E+03  0.72789715395E+03  0.17200000000E+03 0. -1.
         -6    1    1    2    0  503 -0.15731306099E+02  0.27399815757E+02  0.34243694836E+03  0.38450655066E+03  0.17200000000E+03 0. -1.
</event>
<event>
 4    1  0.5701701E+000  0.1897138E+03  0.7818608E-02  0.1158720E+00
         21   -1    0    0  503  502  0.00000000000E+00  0.00000000000E+00  0.24018729090E+03  0.24018729090E+03  0.00000000000E+00 0.  1.
         21   -1    0    0  501  503 -0.00000000000E+00 -0.00000000000E+00 -0.31283197278E+03  0.31283197278E+03  0.00000000000E+00 0.  1.
          6    1    1    2  501    0  0.70933650460E+02 -0.37090942881E+02 -0.23590766957E+03  0.30272718638E+03  0.17200000000E+03 0.  1.
         -6    1    1    2    0  502 -0.70933650460E+02  0.37090942881E+02  0.16326298768E+03  0.25029207730E+03  0.17200000000E+03 0.  1.
</event>
<event>
 4    1  0.5701701E+000  0.1994293E+03  0.7818608E-02  0.1150221E+00
         21   -1    0    0  503  502  0.00000000000E+00  0.00000000000E+00  0.19857569542E+03  0.19857569542E+03  0.00000000000E+00 0.  1.
         21   -1    0    0  501  503 -0.00000000000E+00 -0.00000000000E+00 -0.42242050938E+03  0.42242050938E+03  0.00000000000E+00 0.  1.
          6    1    1    2  501    0 -0.94496088042E+02  0.35475900505E+02 -0.33708377871E+03  0.39165995971E+03  0.17200000000E+03 0.  1.
         -6    1    1    2    0  502  0.94496088042E+02 -0.35475900505E+02  0.11323896475E+03  0.22933624509E+03  0.17200000000E+03 0.  1.
</event>
<event>
 4    1  0.5701701E+000  0.3327001E+03  0.7818608E-02  0.1069948E+00
         21   -1    0    0  501  502  0.00000000000E+00  0.00000000000E+00  0.19696152313E+03  0.19696152313E+03  0.00000000000E+00 0.  1.
         21   -1    0    0  502  503 -0.00000000000E+00 -0.00000000000E+00 -0.10396761064E+04  0.10396761064E+04  0.00000000000E+00 0. -1.
          6    1    1    2  501    0 -0.13302995983E+03  0.25181019870E+03 -0.22384534275E+01  0.33270761497E+03  0.17200000000E+03 0.  1.
         -6    1    1    2    0  503  0.13302995983E+03 -0.25181019870E+03 -0.84047612981E+03  0.90393001453E+03  0.17200000000E+03 0. -1.
</event>
<event>
 4    1  0.5701701E+000  0.1786911E+03  0.7818608E-02  0.1169076E+00
         21   -1    0    0  501  502  0.00000000000E+00  0.00000000000E+00  0.16284035977E+02  0.16284035977E+02  0.00000000000E+00 0. -1.
         21   -1    0    0  502  503 -0.00000000000E+00 -0.00000000000E+00 -0.23822133237E+04  0.23822133237E+04  0.00000000000E+00 0. -1.
          6    1    1    2  501    0 -0.48421010985E+02 -0.13790770612E+01 -0.67859486609E+03  0.70172750298E+03  0.17200000000E+03 0. -1.
         -6    1    1    2    0  503  0.48421010985E+02  0.13790770612E+01 -0.16873344216E+04  0.16967698567E+04  0.17200000000E+03 0. -1.
</event>
<event>
 4    1  0.5701701E+000  0.2672791E+03  0.7818608E-02  0.1102847E+00
         21   -1    0    0  503  502  0.00000000000E+00  0.00000000000E+00  0.19239198728E+03  0.19239198728E+03  0.00000000000E+00 0.  1.
         21   -1    0    0  501  503 -0.00000000000E+00 -0.00000000000E+00 -0.57669293002E+03  0.57669293002E+03  0.00000000000E+00 0.  1.
          6    1    1    2  501    0 -0.14138421191E+03  0.14786692393E+03 -0.42163233426E+03  0.49921132585E+03  0.17200000000E+03 0.  1.
         -6    1    1    2    0  502  0.14138421191E+03 -0.14786692393E+03  0.37331391516E+02  0.26987359145E+03  0.17200000000E+03 0.  1.
</event>
<event>
 4    1  0.5701701E+000  0.1767306E+03  0.7818608E-02  0.1171005E+00
         21   -1    0    0  501  502  0.00000000000E+00  0.00000000000E+00  0.27860721276E+02  0.27860721276E+02  0.00000000000E+00 0.  1.
         21   -1    0    0  502  503 -0.00000000000E+00 -0.00000000000E+00 -0.11709648131E+04  0.11709648131E+04  0.00000000000E+00 0.  1.
          6    1    1    2  501    0  0.31256105020E+01 -0.40495926000E+02 -0.44781436584E+03  0.48142641776E+03  0.17200000000E+03 0.  1.
         -6    1    1    2    0  503 -0.31256105020E+01  0.40495926000E+02 -0.69528972596E+03  0.71739911660E+03  0.17200000000E+03 0.  1.
</event>
<event>
 4    1  0.5701701E+000  0.1968381E+03  0.7818608E-02  0.1152434E+00
         21   -1    0    0  503  502  0.00000000000E+00  0.00000000000E+00  0.84170789266E+02  0.84170789266E+02  0.00000000000E+00 0. -1.
         21   -1    0    0  501  503 -0.00000000000E+00 -0.00000000000E+00 -0.46037460375E+03  0.46037460375E+03  0.00000000000E+00 0. -1.
          6    1    1    2  501    0 -0.60309690151E+02 -0.74323447653E+02 -0.18505265806E+03  0.27016609678E+03  0.17200000000E+03 0. -1.
         -6    1    1    2    0  502  0.60309690151E+02  0.74323447653E+02 -0.19115115642E+03  0.27437929623E+03  0.17200000000E+03 0. -1.
</event>
<event>
 4    1  0.5701701E+000  0.1962799E+03  0.7818608E-02  0.1152916E+00
         21   -1    0    0  503  502  0.00000000000E+00  0.00000000000E+00  0.42445306046E+03  0.42445306046E+03  0.00000000000E+00 0. -1.
         21   -1    0    0  501  503 -0.00000000000E+00 -0.00000000000E+00 -0.25134987336E+03  0.25134987336E+03  0.00000000000E+00 0. -1.
          6    1    1    2  501    0 -0.93804233304E+02  0.11940360105E+02 -0.18353437676E+03  0.26872043807E+03  0.17200000000E+03 0. -1.
         -6    1    1    2    0  502  0.93804233304E+02 -0.11940360105E+02  0.35663756386E+03  0.40708249574E+03  0.17200000000E+03 0. -1.
</event>
<event>
 4    1  0.5701701E+000  0.1829580E+03  0.7818608E-02  0.1164971E+00
         21   -1    0    0  503  502  0.00000000000E+00  0.00000000000E+00  0.14557203368E+04  0.14557203368E+04  0.00000000000E+00 0. -1.
         21   -1    0    0  501  503 -0.00000000000E+00 -0.00000000000E+00 -0.25710200201E+02  0.25710200201E+02  0.00000000000E+00 0.  1.
          6    1    1    2  501    0  0.19475392080E+02 -0.59248212969E+02  0.47427237968E+03  0.50833840280E+03  0.17200000000E+03 0.  1.
         -6    1    1    2    0  502 -0.19475392080E+02  0.59248212969E+02  0.95573775690E+03  0.97309213417E+03  0.17200000000E+03 0. -1.
</event>
<event>
 4    1  0.5701701E+000  0.3361587E+03  0.7818608E-02  0.1068444E+00
         21   -1    0    0  501  502  0.00000000000E+00  0.00000000000E+00  0.10275364116E+04  0.10275364116E+04  0.00000000000E+00 0.  1.
         21   -1    0    0  502  503 -0.00000000000E+00 -0.00000000000E+00 -0.11006434271E+03  0.11006434271E+03  0.00000000000E+00 0.  1.
          6    1    1    2  501    0  0.18040987464E+03  0.22554587329E+03  0.47499920899E+03  0.58191658540E+03  0.17200000000E+03 0.  1.
         -6    1    1    2    0  503 -0.18040987464E+03 -0.22554587329E+03  0.44247285989E+03  0.55568416890E+03  0.17200000000E+03 0.  1.
</event>
<event>
 4    1  0.5701701E+000  0.2055740E+03  0.7818608E-02  0.1145120E+00
         21   -1    0    0  501  502  0.00000000000E+00  0.00000000000E+00  0.17451933375E+03  0.17451933375E+03  0.00000000000E+00 0.  1.
         21   -1    0    0  502  503 -0.00000000000E+00 -0.00000000000E+00 -0.27268544828E+03  0.27268544828E+03  0.00000000000E+00 0.  1.
          6    1    1    2  501    0  0.10879763763E+03 -0.28978036178E+02  0.25736507851E+02  0.20717871602E+03  0.17200000000E+03 0.  1.
         -6    1    1    2    0  503 -0.10879763763E+03  0.28978036178E+02 -0.12390262238E+03  0.24002606602E+03  0.17200000000E+03 0.  1.
</event>
<event>
 4    1  0.5701701E+000  0.1819294E+03  0.7818608E-02  0.1165949E+00
         21   -1    0    0  501  502  0.00000000000E+00  0.00000000000E+00  0.19783206971E+03  0.19783206971E+03  0.00000000000E+00 0.  1.
         21   -1    0    0  502  503 -0.00000000000E+00 -0.00000000000E+00 -0.17010337846E+03  0.17010337846E+03  0.00000000000E+00 0.  1.
          6    1    1    2  501    0  0.23053812068E+02  0.54615149853E+02 -0.97316882020E+01  0.18218945798E+03  0.17200000000E+03 0.  1.
         -6    1    1    2    0  503 -0.23053812068E+02 -0.54615149853E+02  0.37460379453E+02  0.18574599019E+03  0.17200000000E+03 0.  1.
</event>
<event>
 4    1  0.5701701E+000  0.1771599E+03  0.7818608E-02  0.1170580E+00
         21   -1    0    0  503  502  0.00000000000E+00  0.00000000000E+00  0.17481925312E+03  0.17481925312E+03  0.00000000000E+00 0. -1.
         21   -1    0    0  501  503 -0.00000000000E+00 -0.00000000000E+00 -0.25742478796E+03  0.25742478796E+03  0.00000000000E+00 0. -1.
          6    1    1    2  501    0  0.32849021375E+02 -0.26880419668E+02 -0.16018666076E+03  0.23884174981E+03  0.17200000000E+03 0. -1.
         -6    1    1    2    0  502 -0.32849021375E+02  0.26880419668E+02  0.77581125927E+02  0.19340229127E+03  0.17200000000E+03 0. -1.
</event>
<event>
 4    1  0.5701701E+000  0.1788484E+03  0.7818608E-02  0.1168922E+00
         21   -1    0    0  503  502  0.00000000000E+00  0.00000000000E+00  0.35085292611E+03  0.35085292611E+03  0.00000000000E+00 0. -1.
         21   -1    0    0  501  503 -0.00000000000E+00 -0.00000000000E+00 -0.12349650584E+03  0.12349650584E+03  0.00000000000E+00 0. -1.
          6    1    1    2  501    0  0.30180245238E+02 -0.38625332308E+02 -0.76690476081E+01  0.17901278667E+03  0.17200000000E+03 0. -1.
         -6    1    1    2    0  502 -0.30180245238E+02  0.38625332308E+02  0.23502546787E+03  0.29533664529E+03  0.17200000000E+03 0. -1.
</event>
<event>
 4    1  0.5701701E+000  0.1820257E+03  0.7818608E-02  0.1165857E+00
         21   -1    0    0  501  502  0.00000000000E+00  0.00000000000E+00  0.34162776835E+03  0.34162776835E+03  0.00000000000E+00 0.  1.
         21   -1    0    0  502  503 -0.00000000000E+00 -0.00000000000E+00 -0.12175396465E+03  0.12175396465E+03  0.00000000000E+00 0.  1.
          6    1    1    2  501    0  0.54680637026E+02 -0.23651633936E+02  0.21443438159E+03  0.28127473377E+03  0.17200000000E+03 0.  1.
         -6    1    1    2    0  503 -0.54680637026E+02  0.23651633936E+02  0.54394221084E+01  0.18210699922E+03  0.17200000000E+03 0.  1.
</event>
<event>
 4    1  0.5701701E+000  0.2055442E+03  0.7818608E-02  0.1145144E+00
         21   -1    0    0  501  502  0.00000000000E+00  0.00000000000E+00  0.10302964190E+03  0.10302964190E+03  0.00000000000E+00 0.  1.
         21   -1    0    0  502  503 -0.00000000000E+00 -0.00000000000E+00 -0.43011914437E+03  0.43011914437E+03  0.00000000000E+00 0. -1.
          6    1    1    2  501    0 -0.10272748415E+03  0.45951063551E+02 -0.10597828081E+03  0.23125706961E+03  0.17200000000E+03 0.  1.
         -6    1    1    2    0  503  0.10272748415E+03 -0.45951063551E+02 -0.22111122166E+03  0.30189171666E+03  0.17200000000E+03 0. -1.
</event>
<event>
 4    1  0.5701701E+000  0.1783244E+03  0.7818608E-02  0.1169435E+00
         21   -1    0    0  503  502  0.00000000000E+00  0.00000000000E+00  0.16873715553E+04  0.16873715553E+04  0.00000000000E+00 0. -1.
         21   -1    0    0  501  503 -0.00000000000E+00 -0.00000000000E+00 -0.21559241615E+02  0.21559241615E+02  0.00000000000E+00 0.  1.
          6    1    1    2  501    0  0.22610201903E+02  0.41284109615E+02  0.52976096264E+03  0.55896894053E+03  0.17200000000E+03 0.  1.
         -6    1    1    2    0  502 -0.22610201903E+02 -0.41284109615E+02  0.11360513511E+04  0.11499618564E+04  0.17200000000E+03 0. -1.
</event>
<event>
 4    1  0.5701701E+000  0.2003029E+03  0.7818608E-02  0.1149484E+00
         21   -1    0    0  503  502  0.00000000000E+00  0.00000000000E+00  0.21999857217E+02  0.21999857217E+02  0.00000000000E+00 0. -1.
         21   -1    0    0  501  503 -0.00000000000E+00 -0.00000000000E+00 -0.18270783201E+04  0.18270783201E+04  0.00000000000E+00 0. -1.
          6    1    1    2  501    0 -0.38995199238E+02 -0.94955912795E+02 -0.94226493283E+03  0.96331949767E+03  0.17200000000E+03 0. -1.
         -6    1    1    2    0  502  0.38995199238E+02  0.94955912795E+02 -0.86281353003E+03  0.88575867963E+03  0.17200000000E+03 0. -1.
</event>
<event>
 4    1  0.5701701E+000  0.3036434E+03  0.7818608E-02  0.1083433E+00
         21   -1    0    0  501  502  0.00000000000E+00  0.00000000000E+00  0.22048525605E+03  0.22048525605E+03  0.00000000000E+00 0.  1.
         21   -1    0    0  502  503 -0.00000000000E+00 -0.00000000000E+00 -0.43432459124E+03  0.43432459124E+03  0.00000000000E+00 0. -1.
          6    1    1    2  501    0 -0.17981520696E+03 -0.17401671183E+03 -0.17007159747E+03  0.34802826454E+03  0.17200000000E+03 0.  1.
         -6    1    1    2    0  503  0.17981520696E+03  0.17401671183E+03 -0.43767737722E+02  0.30678158275E+03  0.17200000000E+03 0.  1.
</event>
<event>
 4    1  0.5701701E+000  0.2814034E+03  0.7818608E-02  0.1094925E+00
         21   -1    0    0  503  502  0.00000000000E+00  0.00000000000E+00  0.78391397371E+03  0.78391397371E+03  0.00000000000E+00 0. -1.
         21   -1    0    0  501  503 -0.00000000000E+00 -0.00000000000E+00 -0.16077181746E+03  0.16077181746E+03  0.00000000000E+00 0.  1.
          6    1    1    2  501    0 -0.13965785272E+03  0.17349226161E+03  0.23604292205E+02  0.28239164874E+03  0.17200000000E+03 0.  1.
         -6    1    1    2    0  502  0.13965785272E+03 -0.17349226161E+03  0.59953786405E+03  0.66229414243E+03  0.17200000000E+03 0. -1.
</event>
<event>
 4    1  0.5701701E+000  0.1856513E+03  0.7818608E-02  0.1162443E+00
         21   -1    0    0  503  502  0.00000000000E+00  0.00000000000E+00  0.11524247267E+03  0.11524247267E+03  0.00000000000E+00 0. -1.
         21   -1    0    0  501  503 -0.00000000000E+00 -0.00000000000E+00 -0.30658888296E+03  0.30658888296E+03  0.00000000000E+00 0. -1.
          6    1    1    2  501    0  0.34767684061E+02  0.60610267589E+02 -0.12868728519E+03  0.22589115468E+03  0.17200000000E+03 0. -1.
         -6    1    1    2    0  502 -0.34767684061E+02 -0.60610267589E+02 -0.62659125103E+02  0.19594020096E+03  0.17200000000E+03 0. -1.
</event>
<event>
 4    1  0.5701701E+000  0.2016120E+03  0.7818608E-02  0.1148386E+00
         21   -1    0    0  501  502  0.00000000000E+00  0.00000000000E+00  0.28046000435E+03  0.28046000435E+03  0.00000000000E+00 0.  1.
         21   -1    0    0  502  503 -0.00000000000E+00 -0.00000000000E+00 -0.14639331877E+03  0.14639331877E+03  0.00000000000E+00 0. -1.
          6    1    1    2  501    0  0.27025361452E+01 -0.10514803050E+03  0.88362595656E+02  0.22012578297E+03  0.17200000000E+03 0. -1.
         -6    1    1    2    0  503 -0.27025361452E+01  0.10514803050E+03  0.45704089928E+02  0.20672754015E+03  0.17200000000E+03 0.  1.
</event>
<event>
 4    1  0.5701701E+000  0.2154816E+03  0.7818608E-02  0.1137297E+00
         21   -1    0    0  501  502  0.00000000000E+00  0.00000000000E+00  0.35964592020E+02  0.35964592020E+02  0.00000000000E+00 0.  1.
         21   -1    0    0  502  503 -0.00000000000E+00 -0.00000000000E+00 -0.12912635092E+04  0.12912635092E+04  0.00000000000E+00 0. -1.
          6    1    1    2  501    0  0.12979606894E+03  0.11471737415E+01 -0.61925566086E+03  0.65567515511E+03  0.17200000000E+03 0.  1.
         -6    1    1    2    0  503 -0.12979606894E+03 -0.11471737415E+01 -0.63604325633E+03  0.67155294612E+03  0.17200000000E+03 0.  1.
</event>
<event>
 4    1  0.5701701E+000  0.1806302E+03  0.7818608E-02  0.1167195E+00
         21   -1    0    0  501  502  0.00000000000E+00  0.00000000000E+00  0.49039660996E+03  0.49039660996E+03  0.00000000000E+00 0.  1.
         21   -1    0    0  502  503 -0.00000000000E+00 -0.00000000000E+00 -0.11622197769E+03  0.11622197769E+03  0.00000000000E+00 0.  1.
          6    1    1    2  501    0 -0.21873647295E+02 -0.50643934930E+02  0.38541083959E+03  0.42563926025E+03  0.17200000000E+03 0.  1.
         -6    1    1    2    0  503  0.21873647295E+02  0.50643934930E+02 -0.11236207322E+02  0.18097932740E+03  0.17200000000E+03 0.  1.
</event>
<event>
 4    1  0.5701701E+000  0.2207747E+03  0.7818608E-02  0.1133307E+00
         21   -1    0    0  503  502  0.00000000000E+00  0.00000000000E+00  0.78445998518E+03  0.78445998518E+03  0.00000000000E+00 0. -1.
         21   -1    0    0  501  503 -0.00000000000E+00 -0.00000000000E+00 -0.62243815195E+02  0.62243815195E+02  0.00000000000E+00 0. -1.
          6    1    1    2  501    0  0.10659503474E+03  0.88289164249E+02  0.34330954172E+03  0.40817020885E+03  0.17200000000E+03 0. -1.
         -6    1    1    2    0  502 -0.10659503474E+03 -0.88289164249E+02  0.37890662826E+03  0.43853359152E+03  0.17200000000E+03 0. -1.
</event>
<event>
 4    1  0.5701701E+000  0.2334455E+03  0.7818608E-02  0.1124238E+00
         21   -1    0    0  503  502  0.00000000000E+00  0.00000000000E+00  0.30996768305E+02  0.30996768305E+02  0.00000000000E+00 0.  1.
         21   -1    0    0  501  503 -0.00000000000E+00 -0.00000000000E+00 -0.17910216748E+04  0.17910216748E+04  0.00000000000E+00 0.  1.
          6    1    1    2  501    0 -0.12913761173E+03 -0.90754028705E+02 -0.10034409947E+04  0.10302381503E+04  0.17200000000E+03 0. -1.
         -6    1    1    2    0  502  0.12913761173E+03  0.90754028705E+02 -0.75658391182E+03  0.79178029283E+03  0.17200000000E+03 0. -1.
</event>
<event>
 4    1  0.5701701E+000  0.2750693E+03  0.7818608E-02  0.1098413E+00
         21   -1    0    0  501  502  0.00000000000E+00  0.00000000000E+00  0.64279076946E+03  0.64279076946E+03  0.00000000000E+00 0.  1.
         21   -1    0    0  502  503 -0.00000000000E+00 -0.00000000000E+00 -0.13429493014E+03  0.13429493014E+03  0.00000000000E+00 0. -1.
          6    1    1    2  501    0  0.18331250150E+03  0.11169448201E+03  0.11770748839E+03  0.29919589459E+03  0.17200000000E+03 0.  1.
         -6    1    1    2    0  503 -0.18331250150E+03 -0.11169448201E+03  0.39078835093E+03  0.47788980502E+03  0.17200000000E+03 0.  1.
</event>
<event>
 4    1  0.5701701E+000  0.1755067E+03  0.7818608E-02  0.1172224E+00
         21   -1    0    0  503  502  0.00000000000E+00  0.00000000000E+00  0.10954871988E+03  0.10954871988E+03  0.00000000000E+00 0. -1.
         21   -1    0    0  501  503 -0.00000000000E+00 -0.00000000000E+00 -0.32362779937E+03  0.32362779937E+03  0.00000000000E+00 0. -1.
          6    1    1    2  501    0  0.14664331231E+02 -0.31678792740E+02 -0.18548260558E+03  0.25535541015E+03  0.17200000000E+03 0. -1.
         -6    1    1    2    0  502 -0.14664331231E+02  0.31678792740E+02 -0.28596473915E+02  0.17782110910E+03  0.17200000000E+03 0. -1.
</event>
<event>
 4    1  0.5701701E+000  0.1755566E+03  0.7818608E-02  0.1172174E+00
         21   -1    0    0  501  502  0.00000000000E+00  0.00000000000E+00  0.15788426993E+03  0.15788426993E+03  0.00000000000E+00 0.  1.
         21   -1    0    0  502  503 -0.00000000000E+00 -0.00000000000E+00 -0.20592309710E+03  0.20592309710E+03  0.00000000000E+00 0. -1.
          6    1    1    2  501    0  0.34920308261E+02  0.40868369816E+01 -0.65515323825E+02  0.18738299768E+03  0.17200000000E+03 0. -1.
         -6    1    1    2    0  503 -0.34920308261E+02 -0.40868369816E+01  0.17476496656E+02  0.17642436935E+03  0.17200000000E+03 0.  1.
</event>
<event>
 4    1  0.5701701E+000  0.2734516E+03  0.7818608E-02  0.1099320E+00
         21   -1    0    0  501  502  0.00000000000E+00  0.00000000000E+00  0.37706896115E+03  0.37706896115E+03  0.00000000000E+00 0.  1.
         21   -1    0    0  502  503 -0.00000000000E+00 -0.00000000000E+00 -0.20776128551E+03  0.20776128551E+03  0.00000000000E+00 0. -1.
          6    1    1    2  501    0 -0.11939719776E+03  0.17588649609E+03  0.14702896094E+03  0.31047264886E+03  0.17200000000E+03 0.  1.
         -6    1    1    2    0  503  0.11939719776E+03 -0.17588649609E+03  0.22278714709E+02  0.27435759780E+03  0.17200000000E+03 0. -1.
</event>
<event>
 4    1  0.5701701E+000  0.2044024E+03  0.7818608E-02  0.1146077E+00
         21   -1    0    0  501  502  0.00000000000E+00  0.00000000000E+00  0.35989009990E+03  0.35989009990E+03  0.00000000000E+00 0. -1.
         21   -1    0    0  502  503 -0.00000000000E+00 -0.00000000000E+00 -0.15288668656E+03  0.15288668656E+03  0.00000000000E+00 0. -1.
          6    1    1    2  501    0 -0.10054066296E+03  0.45693565907E+02  0.22928027518E+03  0.30716407905E+03  0.17200000000E+03 0. -1.
         -6    1    1    2    0  503  0.10054066296E+03 -0.45693565907E+02 -0.22276861835E+02  0.20561270740E+03  0.17200000000E+03 0. -1.
</event>
<event>
 4    1  0.5701701E+000  0.2703643E+03  0.7818608E-02  0.1101071E+00
         21   -1    0    0  501  502  0.00000000000E+00  0.00000000000E+00  0.97879104064E+02  0.97879104064E+02  0.00000000000E+00 0.  1.
         21   -1    0    0  502  503 -0.00000000000E+00 -0.00000000000E+00 -0.80459226046E+03  0.80459226046E+03  0.00000000000E+00 0. -1.
          6    1    1    2  501    0 -0.20119814809E+03  0.55065181563E+02 -0.23243010133E+03  0.35653978883E+03  0.17200000000E+03 0.  1.
         -6    1    1    2    0  503  0.20119814809E+03 -0.55065181563E+02 -0.47428305507E+03  0.54593157570E+03  0.17200000000E+03 0. -1.
</event>
<event>
 4    1  0.5701701E+000  0.1838614E+03  0.7818608E-02  0.1164117E+00
         21   -1    0    0  503  502  0.00000000000E+00  0.00000000000E+00  0.26337115581E+03  0.26337115581E+03  0.00000000000E+00 0. -1.
         21   -1    0    0  501  503 -0.00000000000E+00 -0.00000000000E+00 -0.15367158651E+03  0.15367158651E+03  0.00000000000E+00 0. -1.
          6    1    1    2  501    0  0.64946051484E+02 -0.17420337496E+01 -0.29786330552E+02  0.18625855624E+03  0.17200000000E+03 0. -1.
         -6    1    1    2    0  502 -0.64946051484E+02  0.17420337496E+01  0.13948589985E+03  0.23078418608E+03  0.17200000000E+03 0. -1.
</event>
<event>
 4    1  0.5701701E+000  0.2048640E+03  0.7818608E-02  0.1145699E+00
         21   -1    0    0  503  502  0.00000000000E+00  0.00000000000E+00  0.14237922452E+03  0.14237922452E+03  0.00000000000E+00 0.  1.
         21   -1    0    0  501  503 -0.00000000000E+00 -0.00000000000E+00 -0.30132344427E+03  0.30132344427E+03  0.00000000000E+00 0.  1.
          6    1    1    2  501    0  0.13918806391E+01  0.11128030497E+03 -0.11218753404E+03  0.23357073104E+03  0.17200000000E+03 0.  1.
         -6    1    1    2    0  502 -0.13918806391E+01 -0.11128030497E+03 -0.46756685714E+02  0.21013193775E+03  0.17200000000E+03 0.  1.
</event>
<event>
 4    1  0.5701701E+000  0.1927175E+03  0.7818608E-02  0.1156033E+00
         21   -1    0    0  503  502  0.00000000000E+00  0.00000000000E+00  0.11961506950E+03  0.11961506950E+03  0.00000000000E+00 0. -1.
         21   -1    0    0  501  503 -0.00000000000E+00 -0.00000000000E+00 -0.10405772281E+04  0.10405772281E+04  0.00000000000E+00 0. -1.
          6    1    1    2  501    0  0.43149548187E+02 -0.75459558805E+02 -0.94638269707E+03  0.96580548654E+03  0.17200000000E+03 0. -1.
         -6    1    1    2    0  502 -0.43149548187E+02  0.75459558805E+02  0.25420538507E+02  0.19438681103E+03  0.17200000000E+03 0. -1.
</event>
<event>
 4    1  0.5701701E+000  0.1943426E+03  0.7818608E-02  0.1154602E+00
         21   -1    0    0  501  502  0.00000000000E+00  0.00000000000E+00  0.29210103925E+03  0.29210103925E+03  0.00000000000E+00 0. -1.
         21   -1    0    0  502  503 -0.00000000000E+00 -0.00000000000E+00 -0.12933622488E+03  0.12933622488E+03  0.00000000000E+00 0. -1.
          6    1    1    2  501    0  0.14056678262E+02  0.89372618456E+02  0.84843198800E+02  0.21205523695E+03  0.17200000000E+03 0. -1.
         -6    1    1    2    0  503 -0.14056678262E+02 -0.89372618456E+02  0.77921615574E+02  0.20938202718E+03  0.17200000000E+03 0. -1.
</event>
<event>
 4    1  0.5701701E+000  0.4991231E+03  0.7818608E-02  0.1014008E+00
         21   -1    0    0  501  502  0.00000000000E+00  0.00000000000E+00  0.94820318949E+03  0.94820318949E+03  0.00000000000E+00 0.  1.
         21   -1    0    0  502  503 -0.00000000000E+00 -0.00000000000E+00 -0.48236666206E+03  0.48236666206E+03  0.00000000000E+00 0. -1.
          6    1    1    2  501    0  0.30985305448E+03  0.35146975507E+03  0.71557710034E+03  0.87245314524E+03  0.17200000000E+03 0.  1.
         -6    1    1    2    0  503 -0.30985305448E+03 -0.35146975507E+03 -0.24974057291E+03  0.55811670631E+03  0.17200000000E+03 0. -1.
</event>
<event>
 4    1  0.5701701E+000  0.1885653E+03  0.7818608E-02  0.1159762E+00
         21   -1    0    0  501  502  0.00000000000E+00  0.00000000000E+00  0.21267010954E+03  0.21267010954E+03  0.00000000000E+00 0.  1.
         21   -1    0    0  502  503 -0.00000000000E+00 -0.00000000000E+00 -0.19880185920E+03  0.19880185920E+03  0.00000000000E+00 0. -1.
          6    1    1    2  501    0 -0.54606885724E+01 -0.77091204088E+02  0.88970612761E+02  0.20850094197E+03  0.17200000000E+03 0.  1.
         -6    1    1    2    0  503  0.54606885724E+01  0.77091204088E+02 -0.75102362416E+02  0.20297102677E+03  0.17200000000E+03 0. -1.
</event>
<event>
 4    1  0.5701701E+000  0.2181304E+03  0.7818608E-02  0.1135285E+00
         21   -1    0    0  503  502  0.00000000000E+00  0.00000000000E+00  0.56484130879E+02  0.56484130879E+02  0.00000000000E+00 0.  1.
         21   -1    0    0  501  503 -0.00000000000E+00 -0.00000000000E+00 -0.84865116609E+03  0.84865116609E+03  0.00000000000E+00 0. -1.
          6    1    1    2  501    0 -0.29594763199E+02 -0.13084739415E+03 -0.43499902811E+03  0.48662618612E+03  0.17200000000E+03 0. -1.
         -6    1    1    2    0  502  0.29594763199E+02  0.13084739415E+03 -0.35716800711E+03  0.41850911085E+03  0.17200000000E+03 0.  1.
</event>
<event>
 4    1  0.5701701E+000  0.1840669E+03  0.7818608E-02  0.1163924E+00
         21   -1    0    0  503  502  0.00000000000E+00  0.00000000000E+00  0.31599559437E+03  0.31599559437E+03  0.00000000000E+00 0.  1.
         21   -1    0    0  501  503 -0.00000000000E+00 -0.00000000000E+00 -0.13990718389E+03  0.13990718389E+03  0.00000000000E+00 0.  1.
          6    1    1    2  501    0 -0.41744417684E+02 -0.50537401305E+02 -0.22140132676E+02  0.18539366444E+03  0.17200000000E+03 0. -1.
         -6    1    1    2    0  502  0.41744417684E+02  0.50537401305E+02  0.19822854316E+03  0.27050911382E+03  0.17200000000E+03 0. -1.
</event>
<event>
 4    1  0.5701701E+000  0.2271001E+03  0.7818608E-02  0.1128698E+00
         21   -1    0    0  501  502  0.00000000000E+00  0.00000000000E+00  0.55133740479E+02  0.55133740479E+02  0.00000000000E+00 0. -1.
         21   -1    0    0  502  503 -0.00000000000E+00 -0.00000000000E+00 -0.12778470685E+04  0.12778470685E+04  0.00000000000E+00 0.  1.
          6    1    1    2  501    0 -0.59238591079E+02  0.13594574200E+03 -0.26635268435E+03  0.35002601032E+03  0.17200000000E+03 0. -1.
         -6    1    1    2    0  503  0.59238591079E+02 -0.13594574200E+03 -0.95636064367E+03  0.98295479865E+03  0.17200000000E+03 0.  1.
</event>
<event>
 4    1  0.5701701E+000  0.2231435E+03  0.7818608E-02  0.1131561E+00
         21   -1    0    0  501  502  0.00000000000E+00  0.00000000000E+00  0.23809141539E+03  0.23809141539E+03  0.00000000000E+00 0. -1.
         21   -1    0    0  502  503 -0.00000000000E+00 -0.00000000000E+00 -0.23821513178E+03  0.23821513178E+03  0.00000000000E+00 0. -1.
          6    1    1    2  501    0 -0.51133235886E+02  0.13264391090E+03  0.83148498423E+02  0.23813166044E+03  0.17200000000E+03 0. -1.
         -6    1    1    2    0  503  0.51133235886E+02 -0.13264391090E+03 -0.83272214811E+02  0.23817488674E+03  0.17200000000E+03 0. -1.
</event>
<event>
 4    1  0.5701701E+000  0.1926572E+03  0.7818608E-02  0.1156086E+00
         21   -1    0    0  501  502  0.00000000000E+00  0.00000000000E+00  0.80513298106E+03  0.80513298106E+03  0.00000000000E+00 0. -1.
         21   -1    0    0  502  503 -0.00000000000E+00 -0.00000000000E+00 -0.58941818735E+02  0.58941818735E+02  0.00000000000E+00 0.  1.
          6    1    1    2  501    0 -0.79735854962E+02  0.34277946955E+02  0.57475551266E+03  0.60618535412E+03  0.17200000000E+03 0.  1.
         -6    1    1    2    0  503  0.79735854962E+02 -0.34277946955E+02  0.17143564966E+03  0.25788944567E+03  0.17200000000E+03 0.  1.
</event>
<event>
 4    1  0.5701701E+000  0.2731423E+03  0.7818608E-02  0.1099495E+00
         21   -1    0    0  501  502  0.00000000000E+00  0.00000000000E+00  0.59186057147E+02  0.59186057147E+02  0.00000000000E+00 0. -1.
         21   -1    0    0  502  503 -0.00000000000E+00 -0.00000000000E+00 -0.14327144302E+04  0.14327144302E+04  0.00000000000E+00 0.  1.
          6    1    1    2  501    0 -0.63972601655E+01  0.21208914354E+03 -0.42817689178E+03  0.50788008467E+03  0.17200000000E+03 0. -1.
         -6    1    1    2    0  503  0.63972601655E+01 -0.21208914354E+03 -0.94535148128E+03  0.98402040269E+03  0.17200000000E+03 0.  1.
</event>
<event>
 4    1  0.5701701E+000  0.2580789E+03  0.7818608E-02  0.1108303E+00
         21   -1    0    0  503  502  0.00000000000E+00  0.00000000000E+00  0.37903610889E+03  0.37903610889E+03  0.00000000000E+00 0.  1.
         21   -1    0    0  501  503 -0.00000000000E+00 -0.00000000000E+00 -0.20569524764E+03  0.20569524764E+03  0.00000000000E+00 0. -1.
          6    1    1    2  501    0 -0.70194563438E+02  0.17914641940E+03 -0.24935239524E+02  0.25928070211E+03  0.17200000000E+03 0. -1.
         -6    1    1    2    0  502  0.70194563438E+02 -0.17914641940E+03  0.19827610078E+03  0.32545065442E+03  0.17200000000E+03 0.  1.
</event>
<event>
 4    1  0.5701701E+000  0.1844321E+03  0.7818608E-02  0.1163581E+00
         21   -1    0    0  503  502  0.00000000000E+00  0.00000000000E+00  0.28368796175E+03  0.28368796175E+03  0.00000000000E+00 0. -1.
         21   -1    0    0  501  503 -0.00000000000E+00 -0.00000000000E+00 -0.11991840423E+03  0.11991840423E+03  0.00000000000E+00 0. -1.
          6    1    1    2  501    0  0.27925362417E+02 -0.60426654468E+02  0.84127385590E+02  0.20271315557E+03  0.17200000000E+03 0. -1.
         -6    1    1    2    0  502 -0.27925362417E+02  0.60426654468E+02  0.79642171937E+02  0.20089321041E+03  0.17200000000E+03 0. -1.
</event>
<event>
 4    1  0.5701701E+000  0.1744397E+03  0.7818608E-02  0.1173296E+00
         21   -1    0    0  503  502  0.00000000000E+00  0.00000000000E+00  0.57616792658E+03  0.57616792658E+03  0.00000000000E+00 0.  1.
         21   -1    0    0  501  503 -0.00000000000E+00 -0.00000000000E+00 -0.52939620847E+02  0.52939620847E+02  0.00000000000E+00 0.  1.
          6    1    1    2  501    0  0.26109505346E+02  0.12786140062E+02  0.24623426855E+03  0.30176233472E+03  0.17200000000E+03 0.  1.
         -6    1    1    2    0  502 -0.26109505346E+02 -0.12786140062E+02  0.27699403719E+03  0.32734521271E+03  0.17200000000E+03 0.  1.
</event>
<event>
 4    1  0.5701701E+000  0.1978853E+03  0.7818608E-02  0.1151536E+00
         21   -1    0    0  503  502  0.00000000000E+00  0.00000000000E+00  0.94172436399E+03  0.94172436399E+03  0.00000000000E+00 0.  1.
         21   -1    0    0  501  503 -0.00000000000E+00 -0.00000000000E+00 -0.65723703600E+02  0.65723703600E+02  0.00000000000E+00 0.  1.
          6    1    1    2  501    0  0.82210218305E+02  0.53066735896E+02  0.13270696012E+03  0.23826400424E+03  0.17200000000E+03 0.  1.
         -6    1    1    2    0  502 -0.82210218305E+02 -0.53066735896E+02  0.74329370026E+03  0.76918406334E+03  0.17200000000E+03 0.  1.
</event>
<event>
 4    1  0.5701701E+000  0.2060386E+03  0.7818608E-02  0.1144742E+00
         21   -1    0    0  501  502  0.00000000000E+00  0.00000000000E+00  0.26815818704E+03  0.26815818704E+03  0.00000000000E+00 0.  1.
         21   -1    0    0  502  503 -0.00000000000E+00 -0.00000000000E+00 -0.29587830361E+03  0.29587830361E+03  0.00000000000E+00 0.  1.
          6    1    1    2  501    0  0.10402982166E+03 -0.45229612269E+02  0.17844071031E+03  0.27256743884E+03  0.17200000000E+03 0.  1.
         -6    1    1    2    0  503 -0.10402982166E+03  0.45229612269E+02 -0.20616082688E+03  0.29146905180E+03  0.17200000000E+03 0.  1.
</event>
<event>
 4    1  0.5701701E+000  0.1849835E+03  0.7818608E-02  0.1163065E+00
         21   -1    0    0  501  502  0.00000000000E+00  0.00000000000E+00  0.68657846944E+02  0.68657846944E+02  0.00000000000E+00 0.  1.
         21   -1    0    0  502  503 -0.00000000000E+00 -0.00000000000E+00 -0.54084214838E+03  0.54084214838E+03  0.00000000000E+00 0.  1.
          6    1    1    2  501    0  0.51401547026E+02 -0.44640398107E+02 -0.32146524867E+03  0.37088918868E+03  0.17200000000E+03 0.  1.
         -6    1    1    2    0  503 -0.51401547026E+02  0.44640398107E+02 -0.15071905277E+03  0.23861080665E+03  0.17200000000E+03 0.  1.
</event>
<event>
 4    1  0.5701701E+000  0.2889541E+03  0.7818608E-02  0.1090896E+00
         21   -1    0    0  501  502  0.00000000000E+00  0.00000000000E+00  0.66522294567E+03  0.66522294567E+03  0.00000000000E+00 0. -1.
         21   -1    0    0  502  503 -0.00000000000E+00 -0.00000000000E+00 -0.25950985370E+03  0.25950985370E+03  0.00000000000E+00 0.  1.
          6    1    1    2  501    0 -0.17445429216E+03  0.15321944160E+03  0.53509946947E+03  0.60813315941E+03  0.17200000000E+03 0. -1.
         -6    1    1    2    0  503  0.17445429216E+03 -0.15321944160E+03 -0.12938637750E+03  0.31659963996E+03  0.17200000000E+03 0.  1.
</event>
<event>
 4    1  0.5701701E+000  0.2149462E+03  0.7818608E-02  0.1137708E+00
         21   -1    0    0  501  502  0.00000000000E+00  0.00000000000E+00  0.28425458013E+03  0.28425458013E+03  0.00000000000E+00 0. -1.
         21   -1    0    0  502  503 -0.00000000000E+00 -0.00000000000E+00 -0.16596042127E+03  0.16596042127E+03  0.00000000000E+00 0. -1.
          6    1    1    2  501    0  0.83107548141E+02  0.98544377047E+02  0.91478448566E+02  0.23360257995E+03  0.17200000000E+03 0. -1.
         -6    1    1    2    0  503 -0.83107548141E+02 -0.98544377047E+02  0.26815710295E+02  0.21661242145E+03  0.17200000000E+03 0. -1.
</event>
<event>
 4    1  0.5701701E+000  0.1755842E+03  0.7818608E-02  0.1172146E+00
         21   -1    0    0  503  502  0.00000000000E+00  0.00000000000E+00  0.19163283554E+03  0.19163283554E+03  0.00000000000E+00 0. -1.
         21   -1    0    0  501  503 -0.00000000000E+00 -0.00000000000E+00 -0.27818184817E+03  0.27818184817E+03  0.00000000000E+00 0. -1.
          6    1    1    2  501    0 -0.17989792437E+01  0.35250386016E+02 -0.19581503502E+03  0.26300827740E+03  0.17200000000E+03 0. -1.
         -6    1    1    2    0  502  0.17989792437E+01 -0.35250386016E+02  0.10926602239E+03  0.20680640631E+03  0.17200000000E+03 0. -1.
</event>
<event>
 4    1  0.5701701E+000  0.1770570E+03  0.7818608E-02  0.1170682E+00
         21   -1    0    0  503  502  0.00000000000E+00  0.00000000000E+00  0.26983454852E+03  0.26983454852E+03  0.00000000000E+00 0. -1.
         21   -1    0    0  501  503 -0.00000000000E+00 -0.00000000000E+00 -0.74276762458E+03  0.74276762458E+03  0.00000000000E+00 0. -1.
          6    1    1    2  501    0  0.41777423230E+02 -0.44509986591E+01 -0.70148859960E+03  0.72348836884E+03  0.17200000000E+03 0. -1.
         -6    1    1    2    0  502 -0.41777423230E+02  0.44509986591E+01  0.22855552353E+03  0.28911380427E+03  0.17200000000E+03 0. -1.
</event>
<event>
 4    1  0.5701701E+000  0.1784791E+03  0.7818608E-02  0.1169283E+00
         21   -1    0    0  501  502  0.00000000000E+00  0.00000000000E+00  0.31150526754E+03  0.31150526754E+03  0.00000000000E+00 0. -1.
         21   -1    0    0  502  503 -0.00000000000E+00 -0.00000000000E+00 -0.11840413476E+03  0.11840413476E+03  0.00000000000E+00 0. -1.
          6    1    1    2  501    0 -0.24647252859E+02 -0.40783716457E+02  0.17592108981E+03  0.25060532405E+03  0.17200000000E+03 0.  1.
         -6    1    1    2    0  503  0.24647252859E+02  0.40783716457E+02  0.17180042972E+02  0.17930407825E+03  0.17200000000E+03 0.  1.
</event>
<event>
 4    1  0.5701701E+000  0.1846218E+03  0.7818608E-02  0.1163404E+00
         21   -1    0    0  501  502  0.00000000000E+00  0.00000000000E+00  0.74340916146E+02  0.74340916146E+02  0.00000000000E+00 0. -1.
         21   -1    0    0  502  503 -0.00000000000E+00 -0.00000000000E+00 -0.45875710230E+03  0.45875710230E+03  0.00000000000E+00 0. -1.
          6    1    1    2  501    0  0.52440924695E+02 -0.41846712104E+02 -0.18587947131E+03  0.26198544950E+03  0.17200000000E+03 0. -1.
         -6    1    1    2    0  503 -0.52440924695E+02  0.41846712104E+02 -0.19853671484E+03  0.27111256894E+03  0.17200000000E+03 0. -1.
</event>
<event>
 4    1  0.5701701E+000  0.3047036E+03  0.7818608E-02  0.1082913E+00
         21   -1    0    0  503  502  0.00000000000E+00  0.00000000000E+00  0.42403112567E+03  0.42403112567E+03  0.00000000000E+00 0.  1.
         21   -1    0    0  501  503 -0.00000000000E+00 -0.00000000000E+00 -0.24613097656E+03  0.24613097656E+03  0.00000000000E+00 0.  1.
          6    1    1    2  501    0  0.12257385742E+02  0.25121711047E+03 -0.22389367763E+02  0.30552506261E+03  0.17200000000E+03 0.  1.
         -6    1    1    2    0  502 -0.12257385742E+02 -0.25121711047E+03  0.20028951687E+03  0.36463703962E+03  0.17200000000E+03 0.  1.
</event>
<event>
 4    1  0.5701701E+000  0.2533893E+03  0.7818608E-02  0.1111181E+00
         21   -1    0    0  501  502  0.00000000000E+00  0.00000000000E+00  0.46903772635E+03  0.46903772635E+03  0.00000000000E+00 0.  1.
         21   -1    0    0  502  503 -0.00000000000E+00 -0.00000000000E+00 -0.20111335925E+03  0.20111335925E+03  0.00000000000E+00 0. -1.
          6    1    1    2  501    0  0.17130541096E+03  0.72640334822E+02  0.32331499192E+03  0.41077822005E+03  0.17200000000E+03 0.  1.
         -6    1    1    2    0  503 -0.17130541096E+03 -0.72640334822E+02 -0.55390624826E+02  0.25937286555E+03  0.17200000000E+03 0. -1.
</event>
<event>
 4    1  0.5701701E+000  0.2170959E+03  0.7818608E-02  0.1136067E+00
         21   -1    0    0  503  502  0.00000000000E+00  0.00000000000E+00  0.38594635229E+03  0.38594635229E+03  0.00000000000E+00 0. -1.
         21   -1    0    0  501  503 -0.00000000000E+00 -0.00000000000E+00 -0.12263231088E+03  0.12263231088E+03  0.00000000000E+00 0. -1.
          6    1    1    2  501    0  0.44963432551E+02  0.12459907330E+03  0.14813974817E+03  0.26282318071E+03  0.17200000000E+03 0.  1.
         -6    1    1    2    0  502 -0.44963432551E+02 -0.12459907330E+03  0.11517429324E+03  0.24575548246E+03  0.17200000000E+03 0.  1.
</event>
<event>
 4    1  0.5701701E+000  0.1937396E+03  0.7818608E-02  0.1155131E+00
         21   -1    0    0  503  502  0.00000000000E+00  0.00000000000E+00  0.27409591986E+03  0.27409591986E+03  0.00000000000E+00 0. -1.
         21   -1    0    0  501  503 -0.00000000000E+00 -0.00000000000E+00 -0.16751767537E+03  0.16751767537E+03  0.00000000000E+00 0.  1.
          6    1    1    2  501    0 -0.68757070279E+02  0.56775832839E+02 -0.41046492249E+02  0.19804000715E+03  0.17200000000E+03 0.  1.
         -6    1    1    2    0  502  0.68757070279E+02 -0.56775832839E+02  0.14762473674E+03  0.24357358807E+03  0.17200000000E+03 0. -1.
</event>
<event>
 4    1  0.5701701E+000  0.3148626E+03  0.7818608E-02  0.1078038E+00
         21   -1    0    0  501  502  0.00000000000E+00  0.00000000000E+00  0.35423585141E+03  0.35423585141E+03  0.00000000000E+00 0. -1.
         21   -1    0    0  502  503 -0.00000000000E+00 -0.00000000000E+00 -0.40140930786E+03  0.40140930786E+03  0.00000000000E+00 0.  1.
          6    1    1    2  501    0 -0.65027773120E+02 -0.25558925264E+03  0.18431599918E+03  0.36484361704E+03  0.17200000000E+03 0. -1.
         -6    1    1    2    0  503  0.65027773120E+02  0.25558925264E+03 -0.23148945562E+03  0.39080154223E+03  0.17200000000E+03 0.  1.
</event>
<event>
 4    1  0.5701701E+000  0.2194756E+03  0.7818608E-02  0.1134275E+00
         21   -1    0    0  501  502  0.00000000000E+00  0.00000000000E+00  0.10476488821E+04  0.10476488821E+04  0.00000000000E+00 0.  1.
         21   -1    0    0  502  503 -0.00000000000E+00 -0.00000000000E+00 -0.48046004274E+02  0.48046004274E+02  0.00000000000E+00 0.  1.
          6    1    1    2  501    0 -0.91178891853E+02  0.10135062972E+03  0.61344177778E+03  0.65152156924E+03  0.17200000000E+03 0.  1.
         -6    1    1    2    0  503  0.91178891853E+02 -0.10135062972E+03  0.38616110007E+03  0.44417331716E+03  0.17200000000E+03 0.  1.
</event>
<event>
 4    1  0.5701701E+000  0.1982709E+03  0.7818608E-02  0.1151206E+00
         21   -1    0    0  501  502  0.00000000000E+00  0.00000000000E+00  0.30784601393E+03  0.30784601393E+03  0.00000000000E+00 0.  1.
         21   -1    0    0  502  503 -0.00000000000E+00 -0.00000000000E+00 -0.12818405780E+03  0.12818405780E+03  0.00000000000E+00 0.  1.
          6    1    1    2  501    0  0.40067006375E+02  0.90121982139E+02  0.10325521565E+03  0.22354636258E+03  0.17200000000E+03 0.  1.
         -6    1    1    2    0  503 -0.40067006375E+02 -0.90121982139E+02  0.76406740482E+02  0.21248370915E+03  0.17200000000E+03 0.  1.
</event>
<event>
 4    1  0.5701701E+000  0.1926502E+03  0.7818608E-02  0.1156093E+00
         21   -1    0    0  501  502  0.00000000000E+00  0.00000000000E+00  0.30400515953E+03  0.30400515953E+03  0.00000000000E+00 0. -1.
         21   -1    0    0  502  503 -0.00000000000E+00 -0.00000000000E+00 -0.18547152797E+03  0.18547152797E+03  0.00000000000E+00 0. -1.
          6    1    1    2  501    0  0.11731068168E+02 -0.85979435046E+02  0.20234263907E+03  0.27938615713E+03  0.17200000000E+03 0. -1.
         -6    1    1    2    0  503 -0.11731068168E+02  0.85979435046E+02 -0.83809007510E+02  0.21009053037E+03  0.17200000000E+03 0. -1.
</event>
<event>
 4    1  0.5701701E+000  0.2861861E+03  0.7818608E-02  0.1092357E+00
         21   -1    0    0  503  502  0.00000000000E+00  0.00000000000E+00  0.56330531227E+03  0.56330531227E+03  0.00000000000E+00 0.  1.
         21   -1    0    0  501  503 -0.00000000000E+00 -0.00000000000E+00 -0.48341593521E+03  0.48341593521E+03  0.00000000000E+00 0. -1.
          6    1    1    2  501    0 -0.19986560108E+03  0.11123063107E+03 -0.39768978336E+03  0.48995885090E+03  0.17200000000E+03 0. -1.
         -6    1    1    2    0  502  0.19986560108E+03 -0.11123063107E+03  0.47757916042E+03  0.55676239658E+03  0.17200000000E+03 0.  1.
</event>
<event>
 4    1  0.5701701E+000  0.1790883E+03  0.7818608E-02  0.1168688E+00
         21   -1    0    0  501  502  0.00000000000E+00  0.00000000000E+00  0.37368619157E+03  0.37368619157E+03  0.00000000000E+00 0.  1.
         21   -1    0    0  502  503 -0.00000000000E+00 -0.00000000000E+00 -0.14735110794E+03  0.14735110794E+03  0.00000000000E+00 0.  1.
          6    1    1    2  501    0 -0.33573745149E+02 -0.36897445566E+02  0.28150562901E+03  0.33364357782E+03  0.17200000000E+03 0.  1.
         -6    1    1    2    0  503  0.33573745149E+02  0.36897445566E+02 -0.55170545388E+02  0.18739372170E+03  0.17200000000E+03 0.  1.
</event>
<event>
 4    1  0.5701701E+000  0.2061084E+03  0.7818608E-02  0.1144685E+00
         21   -1    0    0  503  502  0.00000000000E+00  0.00000000000E+00  0.38743030362E+03  0.38743030362E+03  0.00000000000E+00 0. -1.
         21   -1    0    0  501  503 -0.00000000000E+00 -0.00000000000E+00 -0.12056778553E+03  0.12056778553E+03  0.00000000000E+00 0. -1.
          6    1    1    2  501    0 -0.31140350251E+02  0.10921060729E+03  0.56988235795E+02  0.21384185086E+03  0.17200000000E+03 0. -1.
         -6    1    1    2    0  502  0.31140350251E+02 -0.10921060729E+03  0.20987428230E+03  0.29415623830E+03  0.17200000000E+03 0. -1.
</event>
<event>
 4    1  0.5701701E+000  0.1823032E+03  0.7818608E-02  0.1165592E+00
         21   -1    0    0  503  502  0.00000000000E+00  0.00000000000E+00  0.20785484278E+03  0.20785484278E+03  0.00000000000E+00 0. -1.
         21   -1    0    0  501  503 -0.00000000000E+00 -0.00000000000E+00 -0.18359623931E+03  0.18359623931E+03  0.00000000000E+00 0.  1.
          6    1    1    2  501    0 -0.42633201192E+02  0.42811827856E+02  0.82456532051E+02  0.20008378776E+03  0.17200000000E+03 0. -1.
         -6    1    1    2    0  502  0.42633201192E+02 -0.42811827856E+02 -0.58197928582E+02  0.19136729433E+03  0.17200000000E+03 0.  1.
</event>
<event>
 4    1  0.5701701E+000  0.2824983E+03  0.7818608E-02  0.1094332E+00
         21   -1    0    0  503  502  0.00000000000E+00  0.00000000000E+00  0.71620890299E+03  0.71620890299E+03  0.00000000000E+00 0.  1.
         21   -1    0    0  501  503 -0.00000000000E+00 -0.00000000000E+00 -0.17945931588E+03  0.17945931588E+03  0.00000000000E+00 0. -1.
          6    1    1    2  501    0  0.15800283740E+03  0.15892258851E+03 -0.73593586290E+01  0.28259413640E+03  0.17200000000E+03 0. -1.
         -6    1    1    2    0  502 -0.15800283740E+03 -0.15892258851E+03  0.54410894574E+03  0.61307408248E+03  0.17200000000E+03 0.  1.
</event>
<event>
 4    1  0.5701701E+000  0.1870127E+03  0.7818608E-02  0.1161184E+00
         21   -1    0    0  501  502  0.00000000000E+00  0.00000000000E+00  0.19982308229E+04  0.19982308229E+04  0.00000000000E+00 0.  1.
         21   -1    0    0  502  503 -0.00000000000E+00 -0.00000000000E+00 -0.20366049919E+02  0.20366049919E+02  0.00000000000E+00 0. -1.
          6    1    1    2  501    0 -0.40725995588E+02  0.61083209733E+02  0.13674000806E+04  0.13801292496E+04  0.17200000000E+03 0.  1.
         -6    1    1    2    0  503  0.40725995588E+02 -0.61083209733E+02  0.61046469231E+03  0.63846762313E+03  0.17200000000E+03 0. -1.
</event>
<event>
 4    1  0.5701701E+000  0.2142126E+03  0.7818608E-02  0.1138273E+00
         21   -1    0    0  501  502  0.00000000000E+00  0.00000000000E+00  0.12987505264E+04  0.12987505264E+04  0.00000000000E+00 0. -1.
         21   -1    0    0  502  503 -0.00000000000E+00 -0.00000000000E+00 -0.17895584910E+03  0.17895584910E+03  0.00000000000E+00 0. -1.
          6    1    1    2  501    0 -0.12735661511E+03  0.91286850964E+01  0.12218073724E+04  0.12404435882E+04  0.17200000000E+03 0. -1.
         -6    1    1    2    0  503  0.12735661511E+03 -0.91286850964E+01 -0.10201269505E+03  0.23726278734E+03  0.17200000000E+03 0. -1.
</event>
<event>
 4    1  0.5701701E+000  0.2640153E+03  0.7818608E-02  0.1104755E+00
         21   -1    0    0  501  502  0.00000000000E+00  0.00000000000E+00  0.33250422335E+03  0.33250422335E+03  0.00000000000E+00 0.  1.
         21   -1    0    0  502  503 -0.00000000000E+00 -0.00000000000E+00 -0.32710818583E+03  0.32710818583E+03  0.00000000000E+00 0.  1.
          6    1    1    2  501    0  0.17889624822E+03 -0.90089902493E+02  0.20034267299E+03  0.33142306012E+03  0.17200000000E+03 0.  1.
         -6    1    1    2    0  503 -0.17889624822E+03  0.90089902493E+02 -0.19494663547E+03  0.32818934906E+03  0.17200000000E+03 0.  1.
</event>
<event>
 4    1  0.5701701E+000  0.2198901E+03  0.7818608E-02  0.1133965E+00
         21   -1    0    0  503  502  0.00000000000E+00  0.00000000000E+00  0.39065343628E+03  0.39065343628E+03  0.00000000000E+00 0.  1.
         21   -1    0    0  501  503 -0.00000000000E+00 -0.00000000000E+00 -0.16835843371E+03  0.16835843371E+03  0.00000000000E+00 0. -1.
          6    1    1    2  501    0 -0.11001643562E+03  0.81633619897E+02 -0.32692148833E+02  0.22230708626E+03  0.17200000000E+03 0. -1.
         -6    1    1    2    0  502  0.11001643562E+03 -0.81633619897E+02  0.25498715141E+03  0.33670478373E+03  0.17200000000E+03 0.  1.
</event>
<event>
 4    1  0.5701701E+000  0.1876971E+03  0.7818608E-02  0.1160555E+00
         21   -1    0    0  503  502  0.00000000000E+00  0.00000000000E+00  0.37225417194E+03  0.37225417194E+03  0.00000000000E+00 0.  1.
         21   -1    0    0  501  503 -0.00000000000E+00 -0.00000000000E+00 -0.29638275904E+03  0.29638275904E+03  0.00000000000E+00 0.  1.
          6    1    1    2  501    0  0.66853464446E+02 -0.34304918873E+02 -0.23788867183E+03  0.30302018638E+03  0.17200000000E+03 0.  1.
         -6    1    1    2    0  502 -0.66853464446E+02  0.34304918873E+02  0.31376008473E+03  0.36561674461E+03  0.17200000000E+03 0.  1.
</event>
<event>
 4    1  0.5701701E+000  0.2237149E+03  0.7818608E-02  0.1131143E+00
         21   -1    0    0  501  502  0.00000000000E+00  0.00000000000E+00  0.15235571380E+03  0.15235571380E+03  0.00000000000E+00 0. -1.
         21   -1    0    0  502  503 -0.00000000000E+00 -0.00000000000E+00 -0.80416741830E+03  0.80416741830E+03  0.00000000000E+00 0. -1.
          6    1    1    2  501    0 -0.13587910495E+03  0.44734995914E+02  0.41922708941E+02  0.22760901684E+03  0.17200000000E+03 0. -1.
         -6    1    1    2    0  503  0.13587910495E+03 -0.44734995914E+02 -0.69373441344E+03  0.72891411525E+03  0.17200000000E+03 0. -1.
</event>
<event>
 4    1  0.5701701E+000  0.1932502E+03  0.7818608E-02  0.1155562E+00
         21   -1    0    0  503  502  0.00000000000E+00  0.00000000000E+00  0.14124991851E+03  0.14124991851E+03  0.00000000000E+00 0.  1.
         21   -1    0    0  501  503 -0.00000000000E+00 -0.00000000000E+00 -0.27842029852E+03  0.27842029852E+03  0.00000000000E+00 0.  1.
          6    1    1    2  501    0 -0.67116405118E+02 -0.57070427367E+02 -0.11568266770E+03  0.22522905035E+03  0.17200000000E+03 0.  1.
         -6    1    1    2    0  502  0.67116405118E+02  0.57070427367E+02 -0.21487712310E+02  0.19444116667E+03  0.17200000000E+03 0.  1.
</event>
<event>
 4    1  0.5701701E+000  0.2077284E+03  0.7818608E-02  0.1143378E+00
         21   -1    0    0  503  502  0.00000000000E+00  0.00000000000E+00  0.55780380284E+03  0.55780380284E+03  0.00000000000E+00 0.  1.
         21   -1    0    0  501  503 -0.00000000000E+00 -0.00000000000E+00 -0.99186982202E+02  0.99186982202E+02  0.00000000000E+00 0.  1.
          6    1    1    2  501    0  0.11402430025E+03  0.23780942868E+02  0.75205801982E+02  0.22092303398E+03  0.17200000000E+03 0.  1.
         -6    1    1    2    0  502 -0.11402430025E+03 -0.23780942868E+02  0.38341101866E+03  0.43606775107E+03  0.17200000000E+03 0.  1.
</event>
<event>
 4    1  0.5701701E+000  0.1781261E+03  0.7818608E-02  0.1169629E+00
         21   -1    0    0  501  502  0.00000000000E+00  0.00000000000E+00  0.74450769469E+02  0.74450769469E+02  0.00000000000E+00 0.  1.
         21   -1    0    0  502  503 -0.00000000000E+00 -0.00000000000E+00 -0.43729487953E+03  0.43729487953E+03  0.00000000000E+00 0.  1.
          6    1    1    2  501    0  0.43096641078E+02 -0.16958157623E+02 -0.14061566188E+03  0.22693978045E+03  0.17200000000E+03 0.  1.
         -6    1    1    2    0  503 -0.43096641078E+02  0.16958157623E+02 -0.22222844818E+03  0.28480586855E+03  0.17200000000E+03 0.  1.
</event>
<event>
 4    1  0.5701701E+000  0.2383392E+03  0.7818608E-02  0.1120904E+00
         21   -1    0    0  503  502  0.00000000000E+00  0.00000000000E+00  0.58677045605E+02  0.58677045605E+02  0.00000000000E+00 0.  1.
         21   -1    0    0  501  503 -0.00000000000E+00 -0.00000000000E+00 -0.97006743720E+03  0.97006743720E+03  0.00000000000E+00 0.  1.
          6    1    1    2  501    0  0.15777277771E+03  0.48263065750E+02 -0.47882727763E+03  0.53486552955E+03  0.17200000000E+03 0.  1.
         -6    1    1    2    0  502 -0.15777277771E+03 -0.48263065750E+02 -0.43256311396E+03  0.49387895325E+03  0.17200000000E+03 0.  1.
</event>
<event>
 4    1  0.5701701E+000  0.2347199E+03  0.7818608E-02  0.1123361E+00
         21   -1    0    0  501  502  0.00000000000E+00  0.00000000000E+00  0.16311671565E+03  0.16311671565E+03  0.00000000000E+00 0.  1.
         21   -1    0    0  502  503 -0.00000000000E+00 -0.00000000000E+00 -0.54358107506E+03  0.54358107506E+03  0.00000000000E+00 0.  1.
          6    1    1    2  501    0 -0.15000346138E+03 -0.54848878069E+02  0.27199130782E+02  0.23629056385E+03  0.17200000000E+03 0.  1.
         -6    1    1    2    0  503  0.15000346138E+03  0.54848878069E+02 -0.40766349019E+03  0.47040722686E+03  0.17200000000E+03 0.  1.
</event>
<event>
 4    1  0.5701701E+000  0.1981251E+03  0.7818608E-02  0.1151331E+00
         21   -1    0    0  503  502  0.00000000000E+00  0.00000000000E+00  0.10681504549E+03  0.10681504549E+03  0.00000000000E+00 0. -1.
         21   -1    0    0  501  503 -0.00000000000E+00 -0.00000000000E+00 -0.39711290865E+03  0.39711290865E+03  0.00000000000E+00 0. -1.
          6    1    1    2  501    0 -0.94533445357E+02  0.27073440241E+02 -0.21396496684E+03  0.29160684233E+03  0.17200000000E+03 0. -1.
         -6    1    1    2    0  502  0.94533445357E+02 -0.27073440241E+02 -0.76332896323E+02  0.21232111181E+03  0.17200000000E+03 0. -1.
</event>
<event>
 4    1  0.5701701E+000  0.2020053E+03  0.7818608E-02  0.1148058E+00
         21   -1    0    0  501  502  0.00000000000E+00  0.00000000000E+00  0.10112011901E+03  0.10112011901E+03  0.00000000000E+00 0.  1.
         21   -1    0    0  502  503 -0.00000000000E+00 -0.00000000000E+00 -0.41532505819E+03  0.41532505819E+03  0.00000000000E+00 0. -1.
          6    1    1    2  501    0  0.85830534711E+02 -0.62090767062E+02 -0.20059774825E+03  0.28468509031E+03  0.17200000000E+03 0. -1.
         -6    1    1    2    0  503 -0.85830534711E+02  0.62090767062E+02 -0.11360719093E+03  0.23176008689E+03  0.17200000000E+03 0. -1.
</event>
<event>
 4    1  0.5701701E+000  0.1726140E+03  0.7818608E-02  0.1175149E+00
         21   -1    0    0  501  502  0.00000000000E+00  0.00000000000E+00  0.51359992303E+03  0.51359992303E+03  0.00000000000E+00 0. -1.
         21   -1    0    0  502  503 -0.00000000000E+00 -0.00000000000E+00 -0.11067030662E+03  0.11067030662E+03  0.00000000000E+00 0. -1.
          6    1    1    2  501    0  0.35217782916E+01 -0.14113052755E+02  0.41677050411E+03  0.45110224371E+03  0.17200000000E+03 0. -1.
         -6    1    1    2    0  503 -0.35217782916E+01  0.14113052755E+02 -0.13840887700E+02  0.17316798593E+03  0.17200000000E+03 0. -1.
</event>
<event>
 4    1  0.5701701E+000  0.2194406E+03  0.7818608E-02  0.1134301E+00
         21   -1    0    0  503  502  0.00000000000E+00  0.00000000000E+00  0.16803260289E+03  0.16803260289E+03  0.00000000000E+00 0.  1.
         21   -1    0    0  501  503 -0.00000000000E+00 -0.00000000000E+00 -0.29741146925E+03  0.29741146925E+03  0.00000000000E+00 0. -1.
          6    1    1    2  501    0 -0.11010195953E+03  0.80297905614E+02 -0.10910881429E+03  0.24506923204E+03  0.17200000000E+03 0. -1.
         -6    1    1    2    0  502  0.11010195953E+03 -0.80297905614E+02 -0.20270052065E+02  0.22037484010E+03  0.17200000000E+03 0.  1.
</event>
<event>
 4    1  0.5701701E+000  0.3112076E+03  0.7818608E-02  0.1079768E+00
         21   -1    0    0  501  502  0.00000000000E+00  0.00000000000E+00  0.16448394933E+04  0.16448394933E+04  0.00000000000E+00 0. -1.
         21   -1    0    0  502  503 -0.00000000000E+00 -0.00000000000E+00 -0.59041103497E+02  0.59041103497E+02  0.00000000000E+00 0.  1.
          6    1    1    2  501    0 -0.21679782431E+03  0.14235475006E+03  0.74856681810E+03  0.81068024069E+03  0.17200000000E+03 0. -1.
         -6    1    1    2    0  503  0.21679782431E+03 -0.14235475006E+03  0.83723157172E+03  0.89320035612E+03  0.17200000000E+03 0.  1.
</event>
<event>
 4    1  0.5701701E+000  0.2154962E+03  0.7818608E-02  0.1137286E+00
         21   -1    0    0  501  502  0.00000000000E+00  0.00000000000E+00  0.21614395874E+03  0.21614395874E+03  0.00000000000E+00 0.  1.
         21   -1    0    0  502  503 -0.00000000000E+00 -0.00000000000E+00 -0.28034891939E+03  0.28034891939E+03  0.00000000000E+00 0.  1.
          6    1    1    2  501    0 -0.10324841500E+03  0.78704237497E+02 -0.15209376156E+03  0.26376334944E+03  0.17200000000E+03 0.  1.
         -6    1    1    2    0  503  0.10324841500E+03 -0.78704237497E+02  0.87888800916E+02  0.23272952869E+03  0.17200000000E+03 0.  1.
</event>
<event>
 4    1  0.5701701E+000  0.1834509E+03  0.7818608E-02  0.1164504E+00
         21   -1    0    0  503  502  0.00000000000E+00  0.00000000000E+00  0.36461766271E+02  0.36461766271E+02  0.00000000000E+00 0. -1.
         21   -1    0    0  501  503 -0.00000000000E+00 -0.00000000000E+00 -0.10123297128E+04  0.10123297128E+04  0.00000000000E+00 0. -1.
          6    1    1    2  501    0  0.19970323056E+02 -0.60592151280E+02 -0.64370809421E+03  0.66933872826E+03  0.17200000000E+03 0. -1.
         -6    1    1    2    0  502 -0.19970323056E+02  0.60592151280E+02 -0.33215985228E+03  0.37945275077E+03  0.17200000000E+03 0. -1.
</event>
<event>
 4    1  0.5701701E+000  0.1887485E+03  0.7818608E-02  0.1159595E+00
         21   -1    0    0  501  502  0.00000000000E+00  0.00000000000E+00  0.52382313825E+03  0.52382313825E+03  0.00000000000E+00 0. -1.
         21   -1    0    0  502  503 -0.00000000000E+00 -0.00000000000E+00 -0.25078804930E+03  0.25078804930E+03  0.00000000000E+00 0. -1.
          6    1    1    2  501    0  0.56959248471E+02 -0.52892639137E+02  0.46716151737E+03  0.50385104006E+03  0.17200000000E+03 0. -1.
         -6    1    1    2    0  503 -0.56959248471E+02  0.52892639137E+02 -0.19412642841E+03  0.27076014749E+03  0.17200000000E+03 0. -1.
</event>
<event>
 4    1  0.5701701E+000  0.2823645E+03  0.7818608E-02  0.1094404E+00
         21   -1    0    0  501  502  0.00000000000E+00  0.00000000000E+00  0.37022689055E+03  0.37022689055E+03  0.00000000000E+00 0. -1.
         21   -1    0    0  502  503 -0.00000000000E+00 -0.00000000000E+00 -0.28436768680E+03  0.28436768680E+03  0.00000000000E+00 0.  1.
          6    1    1    2  501    0 -0.20728865499E+03  0.84718042737E+02  0.20416887131E+03  0.34844606651E+03  0.17200000000E+03 0. -1.
         -6    1    1    2    0  503  0.20728865499E+03 -0.84718042737E+02 -0.11830966756E+03  0.30614851084E+03  0.17200000000E+03 0.  1.
</event>
<event>
 4    1  0.5701701E+000  0.2010501E+03  0.7818608E-02  0.1148856E+00
         21   -1    0    0  501  502  0.00000000000E+00  0.00000000000E+00  0.14136098921E+04  0.14136098921E+04  0.00000000000E+00 0.  1.
         21   -1    0    0  502  503 -0.00000000000E+00 -0.00000000000E+00 -0.45113823516E+02  0.45113823516E+02  0.00000000000E+00 0.  1.
          6    1    1    2  501    0  0.10353117053E+03  0.10883097560E+02  0.11256023346E+04  0.11434167048E+04  0.17200000000E+03 0.  1.
         -6    1    1    2    0  503 -0.10353117053E+03 -0.10883097560E+02  0.24289373399E+03  0.31530701086E+03  0.17200000000E+03 0.  1.
</event>
<event>
 4    1  0.5701701E+000  0.2810718E+03  0.7818608E-02  0.1095105E+00
         21   -1    0    0  503  502  0.00000000000E+00  0.00000000000E+00  0.66612381765E+03  0.66612381765E+03  0.00000000000E+00 0. -1.
         21   -1    0    0  501  503 -0.00000000000E+00 -0.00000000000E+00 -0.16161275613E+03  0.16161275613E+03  0.00000000000E+00 0. -1.
          6    1    1    2  501    0  0.55095771245E+01 -0.22223182022E+03  0.46577139421E+03  0.54400765530E+03  0.17200000000E+03 0. -1.
         -6    1    1    2    0  502 -0.55095771245E+01  0.22223182022E+03  0.38739667315E+02  0.28372891848E+03  0.17200000000E+03 0. -1.
</event>
<event>
 4    1  0.5701701E+000  0.2057023E+03  0.7818608E-02  0.1145015E+00
         21   -1    0    0  501  502  0.00000000000E+00  0.00000000000E+00  0.25385752239E+03  0.25385752239E+03  0.00000000000E+00 0. -1.
         21   -1    0    0  502  503 -0.00000000000E+00 -0.00000000000E+00 -0.16729871337E+03  0.16729871337E+03  0.00000000000E+00 0. -1.
          6    1    1    2  501    0 -0.32348486278E+02 -0.10808800512E+03  0.30492615375E+02  0.20795009259E+03  0.17200000000E+03 0. -1.
         -6    1    1    2    0  503  0.32348486278E+02  0.10808800512E+03  0.56066193653E+02  0.21320614317E+03  0.17200000000E+03 0. -1.
</event>
<event>
 4    1  0.5701701E+000  0.3300710E+03  0.7818608E-02  0.1071105E+00
         21   -1    0    0  501  502  0.00000000000E+00  0.00000000000E+00  0.66142016090E+02  0.66142016090E+02  0.00000000000E+00 0. -1.
         21   -1    0    0  502  503 -0.00000000000E+00 -0.00000000000E+00 -0.21463247362E+04  0.21463247362E+04  0.00000000000E+00 0.  1.
          6    1    1    2  501    0  0.24929304298E+03 -0.13120908836E+03 -0.50661079387E+03  0.60464976856E+03  0.17200000000E+03 0. -1.
         -6    1    1    2    0  503 -0.24929304298E+03  0.13120908836E+03 -0.15735719263E+04  0.16078169838E+04  0.17200000000E+03 0.  1.
</event>
<event>
 4    1  0.5701701E+000  0.2106327E+03  0.7818608E-02  0.1141066E+00
         21   -1    0    0  501  502  0.00000000000E+00  0.00000000000E+00  0.24267136242E+03  0.24267136242E+03  0.00000000000E+00 0. -1.
         21   -1    0    0  502  503 -0.00000000000E+00 -0.00000000000E+00 -0.18318965270E+03  0.18318965270E+03  0.00000000000E+00 0.  1.
          6    1    1    2  501    0 -0.12003734131E+03 -0.19317264764E+02  0.20226198568E+02  0.21160155750E+03  0.17200000000E+03 0. -1.
         -6    1    1    2    0  503  0.12003734131E+03  0.19317264764E+02  0.39255511153E+02  0.21425945763E+03  0.17200000000E+03 0.  1.
</event>
<event>
 4    1  0.5701701E+000  0.1808586E+03  0.7818608E-02  0.1166975E+00
         21   -1    0    0  501  502  0.00000000000E+00  0.00000000000E+00  0.16980463031E+04  0.16980463031E+04  0.00000000000E+00 0. -1.
         21   -1    0    0  502  503 -0.00000000000E+00 -0.00000000000E+00 -0.19890217607E+02  0.19890217607E+02  0.00000000000E+00 0. -1.
          6    1    1    2  501    0 -0.54408265800E+02  0.12867704769E+02  0.99158538713E+03  0.10079441538E+04  0.17200000000E+03 0. -1.
         -6    1    1    2    0  503  0.54408265800E+02 -0.12867704769E+02  0.68657069838E+03  0.70999236693E+03  0.17200000000E+03 0. -1.
</event>
<event>
 4    1  0.5701701E+000  0.2408291E+03  0.7818608E-02  0.1119242E+00
         21   -1    0    0  501  502  0.00000000000E+00  0.00000000000E+00  0.11875674135E+03  0.11875674135E+03  0.00000000000E+00 0.  1.
         21   -1    0    0  502  503 -0.00000000000E+00 -0.00000000000E+00 -0.14515415513E+04  0.14515415513E+04  0.00000000000E+00 0.  1.
          6    1    1    2  501    0  0.14916090442E+03 -0.78521918665E+02 -0.26824706830E+02  0.24231845166E+03  0.17200000000E+03 0.  1.
         -6    1    1    2    0  503 -0.14916090442E+03  0.78521918665E+02 -0.13059601032E+04  0.13279798410E+04  0.17200000000E+03 0.  1.
</event>
<event>
 4    1  0.5701701E+000  0.2003826E+03  0.7818608E-02  0.1149417E+00
         21   -1    0    0  501  502  0.00000000000E+00  0.00000000000E+00  0.46356601286E+03  0.46356601286E+03  0.00000000000E+00 0. -1.
         21   -1    0    0  502  503 -0.00000000000E+00 -0.00000000000E+00 -0.89522191944E+02  0.89522191944E+02  0.00000000000E+00 0.  1.
          6    1    1    2  501    0 -0.14504228642E+02 -0.10177824688E+03  0.23683092506E+03  0.31022906255E+03  0.17200000000E+03 0. -1.
         -6    1    1    2    0  503  0.14504228642E+02  0.10177824688E+03  0.13721289585E+03  0.24285914225E+03  0.17200000000E+03 0.  1.
</event>
<event>
 4    1  0.5701701E+000  0.1979276E+03  0.7818608E-02  0.1151499E+00
         21   -1    0    0  501  502  0.00000000000E+00  0.00000000000E+00  0.17213828120E+03  0.17213828120E+03  0.00000000000E+00 0. -1.
         21   -1    0    0  502  503 -0.00000000000E+00 -0.00000000000E+00 -0.31074650880E+03  0.31074650880E+03  0.00000000000E+00 0. -1.
          6    1    1    2  501    0 -0.28618889124E+02  0.93660557573E+02  0.55601787020E+02  0.20558915239E+03  0.17200000000E+03 0. -1.
         -6    1    1    2    0  503  0.28618889124E+02 -0.93660557573E+02 -0.19421001461E+03  0.27729563761E+03  0.17200000000E+03 0. -1.
</event>
<event>
 4    1  0.5701701E+000  0.1877964E+03  0.7818608E-02  0.1160464E+00
         21   -1    0    0  501  502  0.00000000000E+00  0.00000000000E+00  0.37485324447E+03  0.37485324447E+03  0.00000000000E+00 0.  1.
         21   -1    0    0  502  503 -0.00000000000E+00 -0.00000000000E+00 -0.33450900717E+03  0.33450900717E+03  0.00000000000E+00 0.  1.
          6    1    1    2  501    0 -0.40753363642E+02  0.63424277835E+02  0.32086594519E+03  0.37178277320E+03  0.17200000000E+03 0.  1.
         -6    1    1    2    0  503  0.40753363642E+02 -0.63424277835E+02 -0.28052170789E+03  0.33757947844E+03  0.17200000000E+03 0.  1.
</event>
<event>
 4    1  0.5701701E+000  0.1884929E+03  0.7818608E-02  0.1159828E+00
         21   -1    0    0  501  502  0.00000000000E+00  0.00000000000E+00  0.13209097339E+03  0.13209097339E+03  0.00000000000E+00 0. -1.
         21   -1    0    0  502  503 -0.00000000000E+00 -0.00000000000E+00 -0.34454946149E+03  0.34454946149E+03  0.00000000000E+00 0. -1.
          6    1    1    2  501    0 -0.32757407432E+02  0.69803345982E+02  0.53836189299E+01  0.18856971709E+03  0.17200000000E+03 0. -1.
         -6    1    1    2    0  503  0.32757407432E+02 -0.69803345982E+02 -0.21784210703E+03  0.28807071779E+03  0.17200000000E+03 0. -1.
</event>
<event>
 4    1  0.5701701E+000  0.1933576E+03  0.7818608E-02  0.1155467E+00
         21   -1    0    0  503  502  0.00000000000E+00  0.00000000000E+00  0.75223430897E+02  0.75223430897E+02  0.00000000000E+00 0. -1.
         21   -1    0    0  501  503 -0.00000000000E+00 -0.00000000000E+00 -0.85816095975E+03  0.85816095975E+03  0.00000000000E+00 0.  1.
          6    1    1    2  501    0  0.78673690216E+02 -0.40169968476E+02 -0.69422111424E+03  0.72064563508E+03  0.17200000000E+03 0.  1.
         -6    1    1    2    0  502 -0.78673690216E+02  0.40169968476E+02 -0.88716414613E+02  0.21273875557E+03  0.17200000000E+03 0. -1.
</event>
<event>
 4    1  0.5701701E+000  0.2034923E+03  0.7818608E-02  0.1146826E+00
         21   -1    0    0  503  502  0.00000000000E+00  0.00000000000E+00  0.45545684452E+03  0.45545684452E+03  0.00000000000E+00 0.  1.
         21   -1    0    0  501  503 -0.00000000000E+00 -0.00000000000E+00 -0.91003139273E+02  0.91003139273E+02  0.00000000000E+00 0.  1.
          6    1    1    2  501    0  0.10279977352E+03  0.35458899150E+02  0.19059473594E+03  0.27881083253E+03  0.17200000000E+03 0. -1.
         -6    1    1    2    0  502 -0.10279977352E+03 -0.35458899150E+02  0.17385896930E+03  0.26764915126E+03  0.17200000000E+03 0. -1.
</event>
<event>
 4    1  0.5701701E+000  0.2394252E+03  0.7818608E-02  0.1120176E+00
         21   -1    0    0  501  502  0.00000000000E+00  0.00000000000E+00  0.35076807621E+03  0.35076807621E+03  0.00000000000E+00 0. -1.
         21   -1    0    0  502  503 -0.00000000000E+00 -0.00000000000E+00 -0.16920549736E+03  0.16920549736E+03  0.00000000000E+00 0.  1.
          6    1    1    2  501    0  0.16643693545E+03 -0.62582205059E+01  0.13883323922E+03  0.27676540087E+03  0.17200000000E+03 0. -1.
         -6    1    1    2    0  503 -0.16643693545E+03  0.62582205059E+01  0.42729339632E+02  0.24320817271E+03  0.17200000000E+03 0. -1.
</event>
<event>
 4    1  0.5701701E+000  0.1918893E+03  0.7818608E-02  0.1156768E+00
         21   -1    0    0  503  502  0.00000000000E+00  0.00000000000E+00  0.35312707795E+03  0.35312707795E+03  0.00000000000E+00 0.  1.
         21   -1    0    0  501  503 -0.00000000000E+00 -0.00000000000E+00 -0.13801666879E+03  0.13801666879E+03  0.00000000000E+00 0.  1.
          6    1    1    2  501    0 -0.36278827562E+01  0.84996121430E+02 -0.13870643609E+02  0.19238996062E+03  0.17200000000E+03 0.  1.
         -6    1    1    2    0  502  0.36278827562E+01 -0.84996121430E+02  0.22898105277E+03  0.29875378612E+03  0.17200000000E+03 0.  1.
</event>
<event>
 4    1  0.5701701E+000  0.2599098E+03  0.7818608E-02  0.1107197E+00
         21   -1    0    0  501  502  0.00000000000E+00  0.00000000000E+00  0.35176457741E+03  0.35176457741E+03  0.00000000000E+00 0.  1.
         21   -1    0    0  502  503 -0.00000000000E+00 -0.00000000000E+00 -0.40875889310E+03  0.40875889310E+03  0.00000000000E+00 0. -1.
          6    1    1    2  501    0 -0.14173587107E+03  0.13371637150E+03  0.24838608774E+03  0.35951185479E+03  0.17200000000E+03 0.  1.
         -6    1    1    2    0  503  0.14173587107E+03 -0.13371637150E+03 -0.30538040342E+03  0.40101161573E+03  0.17200000000E+03 0. -1.
</event>
<event>
 4    1  0.5701701E+000  0.1814078E+03  0.7818608E-02  0.1166447E+00
         21   -1    0    0  503  502  0.00000000000E+00  0.00000000000E+00  0.11526578388E+04  0.11526578388E+04  0.00000000000E+00 0.  1.
         21   -1    0    0  501  503 -0.00000000000E+00 -0.00000000000E+00 -0.49364580851E+02  0.49364580851E+02  0.00000000000E+00 0.  1.
          6    1    1    2  501    0  0.41797161317E+02 -0.39721571012E+02  0.16138591265E+03  0.24280489843E+03  0.17200000000E+03 0.  1.
         -6    1    1    2    0  502 -0.41797161317E+02  0.39721571012E+02  0.94190734531E+03  0.95921752123E+03  0.17200000000E+03 0.  1.
</event>
<event>
 4    1  0.5701701E+000  0.1747434E+03  0.7818608E-02  0.1172990E+00
         21   -1    0    0  501  502  0.00000000000E+00  0.00000000000E+00  0.62114942642E+02  0.62114942642E+02  0.00000000000E+00 0. -1.
         21   -1    0    0  502  503 -0.00000000000E+00 -0.00000000000E+00 -0.50641929650E+03  0.50641929650E+03  0.00000000000E+00 0. -1.
          6    1    1    2  501    0  0.11070642156E+02  0.28787085862E+02 -0.17351240640E+03  0.24625557985E+03  0.17200000000E+03 0. -1.
         -6    1    1    2    0  503 -0.11070642156E+02 -0.28787085862E+02 -0.27079194745E+03  0.32227865929E+03  0.17200000000E+03 0. -1.
</event>
<event>
 4    1  0.5701701E+000  0.2184034E+03  0.7818608E-02  0.1135079E+00
         21   -1    0    0  501  502  0.00000000000E+00  0.00000000000E+00  0.12331508892E+03  0.12331508892E+03  0.00000000000E+00 0. -1.
         21   -1    0    0  502  503 -0.00000000000E+00 -0.00000000000E+00 -0.38768763614E+03  0.38768763614E+03  0.00000000000E+00 0. -1.
          6    1    1    2  501    0  0.90715326935E+02  0.99432309261E+02 -0.14431214564E+03  0.26177480789E+03  0.17200000000E+03 0.  1.
         -6    1    1    2    0  503 -0.90715326935E+02 -0.99432309261E+02 -0.12006040159E+03  0.24922791717E+03  0.17200000000E+03 0.  1.
</event>
<event>
 4    1  0.5701701E+000  0.1764941E+03  0.7818608E-02  0.1171240E+00
         21   -1    0    0  503  502  0.00000000000E+00  0.00000000000E+00  0.48899014653E+03  0.48899014653E+03  0.00000000000E+00 0.  1.
         21   -1    0    0  501  503 -0.00000000000E+00 -0.00000000000E+00 -0.99695967721E+02  0.99695967721E+02  0.00000000000E+00 0.  1.
          6    1    1    2  501    0 -0.39154499946E+02 -0.57519420465E+01  0.17789550830E+02  0.17738835312E+03  0.17200000000E+03 0.  1.
         -6    1    1    2    0  502  0.39154499946E+02  0.57519420465E+01  0.37150462798E+03  0.41129776113E+03  0.17200000000E+03 0.  1.
</event>
<event>
 4    1  0.5701701E+000  0.2245919E+03  0.7818608E-02  0.1130505E+00
         21   -1    0    0  503  502  0.00000000000E+00  0.00000000000E+00  0.15988755381E+03  0.15988755381E+03  0.00000000000E+00 0. -1.
         21   -1    0    0  501  503 -0.00000000000E+00 -0.00000000000E+00 -0.35992043328E+03  0.35992043328E+03  0.00000000000E+00 0.  1.
          6    1    1    2  501    0  0.14080182070E+03  0.32130498826E+02 -0.19134210565E+03  0.29504800129E+03  0.17200000000E+03 0.  1.
         -6    1    1    2    0  502 -0.14080182070E+03 -0.32130498826E+02 -0.86907738129E+01  0.22475998580E+03  0.17200000000E+03 0. -1.
</event>
<event>
 4    1  0.5701701E+000  0.2008190E+03  0.7818608E-02  0.1149050E+00
         21   -1    0    0  501  502  0.00000000000E+00  0.00000000000E+00  0.38289282014E+02  0.38289282014E+02  0.00000000000E+00 0.  1.
         21   -1    0    0  502  503 -0.00000000000E+00 -0.00000000000E+00 -0.12357482823E+04  0.12357482823E+04  0.00000000000E+00 0.  1.
          6    1    1    2  501    0  0.10295372502E+03  0.12032923963E+02 -0.35392786967E+03  0.40693144101E+03  0.17200000000E+03 0.  1.
         -6    1    1    2    0  503 -0.10295372502E+03 -0.12032923963E+02 -0.84353113065E+03  0.86710612334E+03  0.17200000000E+03 0.  1.
</event>
<event>
 4    1  0.5701701E+000  0.1737544E+03  0.7818608E-02  0.1173988E+00
         21   -1    0    0  503  502  0.00000000000E+00  0.00000000000E+00  0.15665744150E+03  0.15665744150E+03  0.00000000000E+00 0.  1.
         21   -1    0    0  501  503 -0.00000000000E+00 -0.00000000000E+00 -0.19879794635E+03  0.19879794635E+03  0.00000000000E+00 0.  1.
          6    1    1    2  501    0  0.24523412839E+02 -0.22770059951E+01  0.10013097664E+02  0.17404265184E+03  0.17200000000E+03 0. -1.
         -6    1    1    2    0  502 -0.24523412839E+02  0.22770059951E+01 -0.52153602517E+02  0.18141273602E+03  0.17200000000E+03 0. -1.
</event>
<event>
 4    1  0.5701701E+000  0.2023327E+03  0.7818608E-02  0.1147786E+00
         21   -1    0    0  501  502  0.00000000000E+00  0.00000000000E+00  0.82410476153E+02  0.82410476153E+02  0.00000000000E+00 0. -1.
         21   -1    0    0  502  503 -0.00000000000E+00 -0.00000000000E+00 -0.65812491418E+03  0.65812491418E+03  0.00000000000E+00 0.  1.
          6    1    1    2  501    0  0.90111373996E+02  0.56872381165E+02 -0.10451548919E+03  0.22773233179E+03  0.17200000000E+03 0. -1.
         -6    1    1    2    0  503 -0.90111373996E+02 -0.56872381165E+02 -0.47119894884E+03  0.51280305854E+03  0.17200000000E+03 0.  1.
</event>
<event>
 4    1  0.5701701E+000  0.1983273E+03  0.7818608E-02  0.1151158E+00
         21   -1    0    0  503  502  0.00000000000E+00  0.00000000000E+00  0.34657599473E+03  0.34657599473E+03  0.00000000000E+00 0. -1.
         21   -1    0    0  501  503 -0.00000000000E+00 -0.00000000000E+00 -0.14277967751E+03  0.14277967751E+03  0.00000000000E+00 0. -1.
          6    1    1    2  501    0  0.98689652028E+02 -0.31754662743E+01 -0.89175063470E+01  0.19852771324E+03  0.17200000000E+03 0. -1.
         -6    1    1    2    0  502 -0.98689652028E+02  0.31754662743E+01  0.21271382356E+03  0.29082795900E+03  0.17200000000E+03 0. -1.
</event>
<event>
 4    1  0.5701701E+000  0.4579413E+03  0.7818608E-02  0.1025380E+00
         21   -1    0    0  501  502  0.00000000000E+00  0.00000000000E+00  0.63059615716E+03  0.63059615716E+03  0.00000000000E+00 0.  1.
         21   -1    0    0  502  503 -0.00000000000E+00 -0.00000000000E+00 -0.38399449602E+03  0.38399449602E+03  0.00000000000E+00 0. -1.
          6    1    1    2  501    0  0.38136167749E+03 -0.18625123106E+03  0.30896624652E+03  0.55242229464E+03  0.17200000000E+03 0.  1.
         -6    1    1    2    0  503 -0.38136167749E+03  0.18625123106E+03 -0.62364585379E+02  0.46216835854E+03  0.17200000000E+03 0. -1.
</event>
<event>
 4    1  0.5701701E+000  0.1895376E+03  0.7818608E-02  0.1158879E+00
         21   -1    0    0  503  502  0.00000000000E+00  0.00000000000E+00  0.37662583250E+02  0.37662583250E+02  0.00000000000E+00 0.  1.
         21   -1    0    0  501  503 -0.00000000000E+00 -0.00000000000E+00 -0.12858282924E+04  0.12858282924E+04  0.00000000000E+00 0.  1.
          6    1    1    2  501    0 -0.77150315678E+02  0.19706431818E+02 -0.96032587240E+03  0.97885151881E+03  0.17200000000E+03 0.  1.
         -6    1    1    2    0  502  0.77150315678E+02 -0.19706431818E+02 -0.28783983672E+03  0.34463935682E+03  0.17200000000E+03 0.  1.
</event>
<event>
 4    1  0.5701701E+000  0.1770434E+03  0.7818608E-02  0.1170696E+00
         21   -1    0    0  501  502  0.00000000000E+00  0.00000000000E+00  0.61681533566E+03  0.61681533566E+03  0.00000000000E+00 0. -1.
         21   -1    0    0  502  503 -0.00000000000E+00 -0.00000000000E+00 -0.76644209176E+02  0.76644209176E+02  0.00000000000E+00 0. -1.
          6    1    1    2  501    0  0.38740611429E+02 -0.16109759102E+02  0.47136291584E+03  0.50351500250E+03  0.17200000000E+03 0. -1.
         -6    1    1    2    0  503 -0.38740611429E+02  0.16109759102E+02  0.68808210646E+02  0.18994454234E+03  0.17200000000E+03 0. -1.
</event>
<event>
 4    1  0.5701701E+000  0.1946546E+03  0.7818608E-02  0.1154329E+00
         21   -1    0    0  501  502  0.00000000000E+00  0.00000000000E+00  0.93850998441E+02  0.93850998441E+02  0.00000000000E+00 0. -1.
         21   -1    0    0  502  503 -0.00000000000E+00 -0.00000000000E+00 -0.40649690871E+03  0.40649690871E+03  0.00000000000E+00 0. -1.
          6    1    1    2  501    0  0.91110802452E+02  0.22860268063E+01 -0.13568053966E+03  0.23727539503E+03  0.17200000000E+03 0.  1.
         -6    1    1    2    0  503 -0.91110802452E+02 -0.22860268063E+01 -0.17696537061E+03  0.26307251213E+03  0.17200000000E+03 0.  1.
</event>
<event>
 4    1  0.5701701E+000  0.1801803E+03  0.7818608E-02  0.1167629E+00
         21   -1    0    0  501  502  0.00000000000E+00  0.00000000000E+00  0.81832573871E+02  0.81832573871E+02  0.00000000000E+00 0. -1.
         21   -1    0    0  502  503 -0.00000000000E+00 -0.00000000000E+00 -0.80327026524E+03  0.80327026524E+03  0.00000000000E+00 0. -1.
          6    1    1    2  501    0  0.16064034017E+01 -0.53650198554E+02 -0.45880209684E+02  0.18592987382E+03  0.17200000000E+03 0. -1.
         -6    1    1    2    0  503 -0.16064034017E+01  0.53650198554E+02 -0.67555748169E+03  0.69917296530E+03  0.17200000000E+03 0. -1.
</event>
<event>
 4    1  0.5701701E+000  0.1857475E+03  0.7818608E-02  0.1162354E+00
         21   -1    0    0  501  502  0.00000000000E+00  0.00000000000E+00  0.11161206341E+03  0.11161206341E+03  0.00000000000E+00 0. -1.
         21   -1    0    0  502  503 -0.00000000000E+00 -0.00000000000E+00 -0.30997359835E+03  0.30997359835E+03  0.00000000000E+00 0. -1.
          6    1    1    2  501    0  0.22858088708E+02 -0.66299739357E+02 -0.88155545583E+02  0.20560532064E+03  0.17200000000E+03 0. -1.
         -6    1    1    2    0  503 -0.22858088708E+02  0.66299739357E+02 -0.11020598936E+03  0.21598034112E+03  0.17200000000E+03 0. -1.
</event>
<event>
 4    1  0.5701701E+000  0.2809505E+03  0.7818608E-02  0.1095171E+00
         21   -1    0    0  503  502  0.00000000000E+00  0.00000000000E+00  0.14387739718E+04  0.14387739718E+04  0.00000000000E+00 0. -1.
         21   -1    0    0  501  503 -0.00000000000E+00 -0.00000000000E+00 -0.54935420947E+02  0.54935420947E+02  0.00000000000E+00 0. -1.
          6    1    1    2  501    0  0.19061279246E+03 -0.11408744889E+03  0.71933057116E+03  0.77224973502E+03  0.17200000000E+03 0. -1.
         -6    1    1    2    0  502 -0.19061279246E+03  0.11408744889E+03  0.66450797969E+03  0.72145965772E+03  0.17200000000E+03 0. -1.
</event>
<event>
 4    1  0.5701701E+000  0.2629343E+03  0.7818608E-02  0.1105393E+00
         21   -1    0    0  503  502  0.00000000000E+00  0.00000000000E+00  0.80079243576E+02  0.80079243576E+02  0.00000000000E+00 0. -1.
         21   -1    0    0  501  503 -0.00000000000E+00 -0.00000000000E+00 -0.88352928043E+03  0.88352928043E+03  0.00000000000E+00 0.  1.
          6    1    1    2  501    0  0.18242123508E+03 -0.79201993803E+02 -0.32886736751E+03  0.42105606307E+03  0.17200000000E+03 0. -1.
         -6    1    1    2    0  502 -0.18242123508E+03  0.79201993803E+02 -0.47458266934E+03  0.54255246094E+03  0.17200000000E+03 0.  1.
</event>
<event>
 4    1  0.5701701E+000  0.1987291E+03  0.7818608E-02  0.1150816E+00
         21   -1    0    0  501  502  0.00000000000E+00  0.00000000000E+00  0.84780134976E+02  0.84780134976E+02  0.00000000000E+00 0. -1.
         21   -1    0    0  502  503 -0.00000000000E+00 -0.00000000000E+00 -0.59771486584E+03  0.59771486584E+03  0.00000000000E+00 0. -1.
          6    1    1    2  501    0 -0.99439884176E+02  0.45767629292E+01 -0.41676158163E+03  0.46171793689E+03  0.17200000000E+03 0. -1.
         -6    1    1    2    0  503  0.99439884176E+02 -0.45767629292E+01 -0.96173149243E+02  0.22077706393E+03  0.17200000000E+03 0. -1.
</event>
<event>
 4    1  0.5701701E+000  0.2126347E+03  0.7818608E-02  0.1139496E+00
         21   -1    0    0  501  502  0.00000000000E+00  0.00000000000E+00  0.77205156061E+03  0.77205156061E+03  0.00000000000E+00 0.  1.
         21   -1    0    0  502  503 -0.00000000000E+00 -0.00000000000E+00 -0.58757822678E+02  0.58757822678E+02  0.00000000000E+00 0.  1.
          6    1    1    2  501    0 -0.12400545521E+03  0.15879915816E+02  0.38057711665E+03  0.43595007325E+03  0.17200000000E+03 0.  1.
         -6    1    1    2    0  503  0.12400545521E+03 -0.15879915816E+02  0.33271662128E+03  0.39485931004E+03  0.17200000000E+03 0.  1.
</event>
<event>
 4    1  0.5701701E+000  0.4417192E+03  0.7818608E-02  0.1030221E+00
         21   -1    0    0  501  502  0.00000000000E+00  0.00000000000E+00  0.12142425971E+03  0.12142425971E+03  0.00000000000E+00 0. -1.
         21   -1    0    0  502  503 -0.00000000000E+00 -0.00000000000E+00 -0.16334005039E+04  0.16334005039E+04  0.00000000000E+00 0.  1.
          6    1    1    2  501    0  0.30663257958E+03 -0.26741042753E+03 -0.86776095447E+03  0.97371707889E+03  0.17200000000E+03 0.  1.
         -6    1    1    2    0  503 -0.30663257958E+03  0.26741042753E+03 -0.64421528969E+03  0.78110768469E+03  0.17200000000E+03 0. -1.
</event>
<event>
 4    1  0.5701701E+000  0.3824019E+03  0.7818608E-02  0.1050050E+00
         21   -1    0    0  503  502  0.00000000000E+00  0.00000000000E+00  0.11612390208E+03  0.11612390208E+03  0.00000000000E+00 0.  1.
         21   -1    0    0  501  503 -0.00000000000E+00 -0.00000000000E+00 -0.12599673534E+04  0.12599673534E+04  0.00000000000E+00 0. -1.
          6    1    1    2  501    0  0.10954811414E+03 -0.32349103335E+03 -0.55572400105E+03  0.67458165058E+03  0.17200000000E+03 0.  1.
         -6    1    1    2    0  502 -0.10954811414E+03  0.32349103335E+03 -0.58811945024E+03  0.70150960486E+03  0.17200000000E+03 0.  1.
</event>
<event>
 4    1  0.5701701E+000  0.1728629E+03  0.7818608E-02  0.1174895E+00
         21   -1    0    0  503  502  0.00000000000E+00  0.00000000000E+00  0.65327392695E+02  0.65327392695E+02  0.00000000000E+00 0.  1.
         21   -1    0    0  501  503 -0.00000000000E+00 -0.00000000000E+00 -0.48441366042E+03  0.48441366042E+03  0.00000000000E+00 0.  1.
          6    1    1    2  501    0 -0.14401549557E+02  0.94955121938E+01 -0.27443806609E+03  0.32434213649E+03  0.17200000000E+03 0.  1.
         -6    1    1    2    0  502  0.14401549557E+02 -0.94955121938E+01 -0.14464820163E+03  0.22539891663E+03  0.17200000000E+03 0.  1.
</event>
<event>
 4    1  0.5701701E+000  0.2180730E+03  0.7818608E-02  0.1135328E+00
         21   -1    0    0  503  502  0.00000000000E+00  0.00000000000E+00  0.79565448436E+02  0.79565448436E+02  0.00000000000E+00 0.  1.
         21   -1    0    0  501  503 -0.00000000000E+00 -0.00000000000E+00 -0.81811742181E+03  0.81811742181E+03  0.00000000000E+00 0. -1.
          6    1    1    2  501    0 -0.64656228906E+02 -0.11743677655E+03 -0.60225327156E+03  0.64051918591E+03  0.17200000000E+03 0. -1.
         -6    1    1    2    0  502  0.64656228906E+02  0.11743677655E+03 -0.13629870181E+03  0.25716368433E+03  0.17200000000E+03 0.  1.
</event>
<event>
 4    1  0.5701701E+000  0.2761561E+03  0.7818608E-02  0.1097807E+00
         21   -1    0    0  501  502  0.00000000000E+00  0.00000000000E+00  0.87613781644E+02  0.87613781644E+02  0.00000000000E+00 0. -1.
         21   -1    0    0  502  503 -0.00000000000E+00 -0.00000000000E+00 -0.90218057041E+03  0.90218057041E+03  0.00000000000E+00 0. -1.
          6    1    1    2  501    0  0.66689049365E+02  0.20550128385E+03 -0.31445055909E+03  0.41849893797E+03  0.17200000000E+03 0. -1.
         -6    1    1    2    0  503 -0.66689049365E+02 -0.20550128385E+03 -0.50011622968E+03  0.57129541409E+03  0.17200000000E+03 0. -1.
</event>
<event>
 4    1  0.5701701E+000  0.2344796E+03  0.7818608E-02  0.1123526E+00
         21   -1    0    0  501  502  0.00000000000E+00  0.00000000000E+00  0.50018747697E+03  0.50018747697E+03  0.00000000000E+00 0. -1.
         21   -1    0    0  502  503 -0.00000000000E+00 -0.00000000000E+00 -0.10992364411E+03  0.10992364411E+03  0.00000000000E+00 0. -1.
          6    1    1    2  501    0  0.13596733735E+03 -0.83123726873E+02  0.19685755953E+03  0.30615938584E+03  0.17200000000E+03 0. -1.
         -6    1    1    2    0  503 -0.13596733735E+03  0.83123726873E+02  0.19340627333E+03  0.30395173524E+03  0.17200000000E+03 0. -1.
</event>
<event>
 4    1  0.5701701E+000  0.1724464E+03  0.7818608E-02  0.1175320E+00
         21   -1    0    0  503  502  0.00000000000E+00  0.00000000000E+00  0.28731779483E+03  0.28731779483E+03  0.00000000000E+00 0.  1.
         21   -1    0    0  501  503 -0.00000000000E+00 -0.00000000000E+00 -0.10435798310E+03  0.10435798310E+03  0.00000000000E+00 0.  1.
          6    1    1    2  501    0 -0.12013220096E+02  0.30730959629E+01  0.10922373813E+03  0.20412639797E+03  0.17200000000E+03 0.  1.
         -6    1    1    2    0  502  0.12013220096E+02 -0.30730959629E+01  0.73736073593E+02  0.18754937996E+03  0.17200000000E+03 0.  1.
</event>
<event>
 4    1  0.5701701E+000  0.3037731E+03  0.7818608E-02  0.1083370E+00
         21   -1    0    0  503  502  0.00000000000E+00  0.00000000000E+00  0.11290532552E+03  0.11290532552E+03  0.00000000000E+00 0.  1.
         21   -1    0    0  501  503 -0.00000000000E+00 -0.00000000000E+00 -0.10132514879E+04  0.10132514879E+04  0.00000000000E+00 0.  1.
          6    1    1    2  501    0 -0.25015654665E+03  0.10762019389E+02 -0.20255709615E+03  0.36511299086E+03  0.17200000000E+03 0.  1.
         -6    1    1    2    0  502  0.25015654665E+03 -0.10762019389E+02 -0.69778906621E+03  0.76104382253E+03  0.17200000000E+03 0.  1.
</event>
<event>
 4    1  0.5701701E+000  0.2027518E+03  0.7818608E-02  0.1147438E+00
         21   -1    0    0  503  502  0.00000000000E+00  0.00000000000E+00  0.44679433585E+03  0.44679433585E+03  0.00000000000E+00 0. -1.
         21   -1    0    0  501  503 -0.00000000000E+00 -0.00000000000E+00 -0.14221202692E+03  0.14221202692E+03  0.00000000000E+00 0.  1.
          6    1    1    2  501    0  0.93438429024E+02  0.52854236303E+02 -0.22691267836E+02  0.20401765598E+03  0.17200000000E+03 0.  1.
         -6    1    1    2    0  502 -0.93438429024E+02 -0.52854236303E+02  0.32727357676E+03  0.38498870679E+03  0.17200000000E+03 0. -1.
</event>
<event>
 4    1  0.5701701E+000  0.1735510E+03  0.7818608E-02  0.1174195E+00
         21   -1    0    0  503  502  0.00000000000E+00  0.00000000000E+00  0.33012469114E+02  0.33012469114E+02  0.00000000000E+00 0. -1.
         21   -1    0    0  501  503 -0.00000000000E+00 -0.00000000000E+00 -0.12032026886E+04  0.12032026886E+04  0.00000000000E+00 0. -1.
          6    1    1    2  501    0  0.10361813635E+02  0.20702037943E+02 -0.88897940005E+03  0.90576173206E+03  0.17200000000E+03 0. -1.
         -6    1    1    2    0  502 -0.10361813635E+02 -0.20702037943E+02 -0.28121081943E+03  0.33045342565E+03  0.17200000000E+03 0. -1.
</event>
<event>
 4    1  0.5701701E+000  0.4240812E+03  0.7818608E-02  0.1035746E+00
         21   -1    0    0  503  502  0.00000000000E+00  0.00000000000E+00  0.22468738880E+03  0.22468738880E+03  0.00000000000E+00 0. -1.
         21   -1    0    0  501  503 -0.00000000000E+00 -0.00000000000E+00 -0.81453778876E+03  0.81453778876E+03  0.00000000000E+00 0.  1.
          6    1    1    2  501    0 -0.35270505838E+03  0.16081056759E+03 -0.36332662295E+03  0.55843632743E+03  0.17200000000E+03 0. -1.
         -6    1    1    2    0  502  0.35270505838E+03 -0.16081056759E+03 -0.22652377701E+03  0.48078885013E+03  0.17200000000E+03 0.  1.
</event>
<event>
 4    1  0.5701701E+000  0.1973782E+03  0.7818608E-02  0.1151970E+00
         21   -1    0    0  503  502  0.00000000000E+00  0.00000000000E+00  0.54783776935E+03  0.54783776935E+03  0.00000000000E+00 0.  1.
         21   -1    0    0  501  503 -0.00000000000E+00 -0.00000000000E+00 -0.12248776913E+03  0.12248776913E+03  0.00000000000E+00 0. -1.
          6    1    1    2  501    0  0.96785290181E+02  0.26003468330E+01 -0.43881730961E+01  0.19742697451E+03  0.17200000000E+03 0. -1.
         -6    1    1    2    0  502 -0.96785290181E+02 -0.26003468330E+01  0.42973817332E+03  0.47289856398E+03  0.17200000000E+03 0.  1.
</event>
<event>
 4    1  0.5701701E+000  0.4142022E+03  0.7818608E-02  0.1038970E+00
         21   -1    0    0  503  502  0.00000000000E+00  0.00000000000E+00  0.37294308511E+04  0.37294308511E+04  0.00000000000E+00 0.  1.
         21   -1    0    0  501  503 -0.00000000000E+00 -0.00000000000E+00 -0.46199983796E+02  0.46199983796E+02  0.00000000000E+00 0. -1.
          6    1    1    2  501    0  0.63768178086E+02  0.37136652480E+03  0.19650128265E+04  0.20081929401E+04  0.17200000000E+03 0.  1.
         -6    1    1    2    0  502 -0.63768178086E+02 -0.37136652480E+03  0.17182180408E+04  0.17674378948E+04  0.17200000000E+03 0. -1.
</event>
<event>
 4    1  0.5701701E+000  0.1808543E+03  0.7818608E-02  0.1166979E+00
         21   -1    0    0  501  502  0.00000000000E+00  0.00000000000E+00  0.19851697949E+04  0.19851697949E+04  0.00000000000E+00 0.  1.
         21   -1    0    0  502  503 -0.00000000000E+00 -0.00000000000E+00 -0.36851344788E+02  0.36851344788E+02  0.00000000000E+00 0.  1.
          6    1    1    2  501    0 -0.19596281591E+01  0.55860772385E+02  0.17259175431E+04  0.17353672901E+04  0.17200000000E+03 0.  1.
         -6    1    1    2    0  503  0.19596281591E+01 -0.55860772385E+02  0.22240090702E+03  0.28665384958E+03  0.17200000000E+03 0.  1.
</event>
<event>
 4    1  0.5701701E+000  0.1801846E+03  0.7818608E-02  0.1167624E+00
         21   -1    0    0  503  502  0.00000000000E+00  0.00000000000E+00  0.12901930357E+03  0.12901930357E+03  0.00000000000E+00 0.  1.
         21   -1    0    0  501  503 -0.00000000000E+00 -0.00000000000E+00 -0.63690968252E+03  0.63690968252E+03  0.00000000000E+00 0.  1.
          6    1    1    2  501    0 -0.53500478521E+02  0.44944830696E+01 -0.55179795347E+03  0.58047177626E+03  0.17200000000E+03 0.  1.
         -6    1    1    2    0  502  0.53500478521E+02 -0.44944830696E+01  0.43907574522E+02  0.18545720984E+03  0.17200000000E+03 0.  1.
</event>
<event>
 4    1  0.5701701E+000  0.2071912E+03  0.7818608E-02  0.1143810E+00
         21   -1    0    0  501  502  0.00000000000E+00  0.00000000000E+00  0.17354840799E+03  0.17354840799E+03  0.00000000000E+00 0.  1.
         21   -1    0    0  502  503 -0.00000000000E+00 -0.00000000000E+00 -0.25901917197E+03  0.25901917197E+03  0.00000000000E+00 0. -1.
          6    1    1    2  501    0  0.43465150759E+02  0.10702784880E+03 -0.88631168829E+02  0.22535231048E+03  0.17200000000E+03 0. -1.
         -6    1    1    2    0  503 -0.43465150759E+02 -0.10702784880E+03  0.31604048493E+01  0.20721526949E+03  0.17200000000E+03 0.  1.
</event>
<event>
 4    1  0.5701701E+000  0.2015936E+03  0.7818608E-02  0.1148401E+00
         21   -1    0    0  503  502  0.00000000000E+00  0.00000000000E+00  0.30621956739E+03  0.30621956739E+03  0.00000000000E+00 0.  1.
         21   -1    0    0  501  503 -0.00000000000E+00 -0.00000000000E+00 -0.15750950919E+03  0.15750950919E+03  0.00000000000E+00 0.  1.
          6    1    1    2  501    0  0.33678635911E+02  0.99607958929E+02 -0.17638400494E+02  0.20236380400E+03  0.17200000000E+03 0.  1.
         -6    1    1    2    0  502 -0.33678635911E+02 -0.99607958929E+02  0.16634845869E+03  0.26136527257E+03  0.17200000000E+03 0.  1.
</event>
<event>
 4    1  0.5701701E+000  0.1841450E+03  0.7818608E-02  0.1163851E+00
         21   -1    0    0  503  502  0.00000000000E+00  0.00000000000E+00  0.49121380593E+02  0.49121380593E+02  0.00000000000E+00 0.  1.
         21   -1    0    0  501  503 -0.00000000000E+00 -0.00000000000E+00 -0.72259842669E+03  0.72259842669E+03  0.00000000000E+00 0.  1.
          6    1    1    2  501    0  0.27824043296E+02  0.59592033045E+02 -0.25518386287E+03  0.31468745075E+03  0.17200000000E+03 0.  1.
         -6    1    1    2    0  502 -0.27824043296E+02 -0.59592033045E+02 -0.41829318322E+03  0.45703235653E+03  0.17200000000E+03 0.  1.
</event>
<event>
 4    1  0.5701701E+000  0.1880365E+03  0.7818608E-02  0.1160244E+00
         21   -1    0    0  501  502  0.00000000000E+00  0.00000000000E+00  0.22616027884E+03  0.22616027884E+03  0.00000000000E+00 0.  1.
         21   -1    0    0  502  503 -0.00000000000E+00 -0.00000000000E+00 -0.26788424822E+03  0.26788424822E+03  0.00000000000E+00 0.  1.
          6    1    1    2  501    0 -0.72938816625E+02  0.21299198732E+02  0.13853774179E+03  0.23356034068E+03  0.17200000000E+03 0.  1.
         -6    1    1    2    0  503  0.72938816625E+02 -0.21299198732E+02 -0.18026171117E+03  0.26048418638E+03  0.17200000000E+03 0.  1.
</event>
<event>
 4    1  0.5701701E+000  0.1974613E+03  0.7818608E-02  0.1151899E+00
         21   -1    0    0  503  502  0.00000000000E+00  0.00000000000E+00  0.46560769260E+03  0.46560769260E+03  0.00000000000E+00 0.  1.
         21   -1    0    0  501  503 -0.00000000000E+00 -0.00000000000E+00 -0.10273375141E+03  0.10273375141E+03  0.00000000000E+00 0.  1.
          6    1    1    2  501    0  0.90459349815E+02  0.34986538460E+02  0.59255747340E+02  0.20616060592E+03  0.17200000000E+03 0. -1.
         -6    1    1    2    0  502 -0.90459349815E+02 -0.34986538460E+02  0.30361819385E+03  0.36218083809E+03  0.17200000000E+03 0. -1.
</event>
<event>
 4    1  0.5701701E+000  0.2901845E+03  0.7818608E-02  0.1090253E+00
         21   -1    0    0  501  502  0.00000000000E+00  0.00000000000E+00  0.44229935347E+03  0.44229935347E+03  0.00000000000E+00 0. -1.
         21   -1    0    0  502  503 -0.00000000000E+00 -0.00000000000E+00 -0.34988997462E+03  0.34988997462E+03  0.00000000000E+00 0. -1.
          6    1    1    2  501    0  0.23370780564E+03 -0.19217508532E+01  0.31364123962E+03  0.42729130431E+03  0.17200000000E+03 0. -1.
         -6    1    1    2    0  503 -0.23370780564E+03  0.19217508532E+01 -0.22123186076E+03  0.36489802378E+03  0.17200000000E+03 0. -1.
</event>
<event>
 4    1  0.5701701E+000  0.2848562E+03  0.7818608E-02  0.1093066E+00
         21   -1    0    0  503  502  0.00000000000E+00  0.00000000000E+00  0.34880456569E+03  0.34880456569E+03  0.00000000000E+00 0.  1.
         21   -1    0    0  501  503 -0.00000000000E+00 -0.00000000000E+00 -0.35404668826E+03  0.35404668826E+03  0.00000000000E+00 0. -1.
          6    1    1    2  501    0  0.13491839845E+03 -0.18263648871E+03 -0.20841803899E+03  0.35296053635E+03  0.17200000000E+03 0. -1.
         -6    1    1    2    0  502 -0.13491839845E+03  0.18263648871E+03  0.20317591642E+03  0.34989071760E+03  0.17200000000E+03 0.  1.
</event>
<event>
 4    1  0.5701701E+000  0.1786785E+03  0.7818608E-02  0.1169088E+00
         21   -1    0    0  503  502  0.00000000000E+00  0.00000000000E+00  0.10572945999E+04  0.10572945999E+04  0.00000000000E+00 0.  1.
         21   -1    0    0  501  503 -0.00000000000E+00 -0.00000000000E+00 -0.80487824487E+02  0.80487824487E+02  0.00000000000E+00 0.  1.
          6    1    1    2  501    0  0.15716362054E+02 -0.45771175583E+02  0.38713538557E+02  0.18282434908E+03  0.17200000000E+03 0.  1.
         -6    1    1    2    0  502 -0.15716362054E+02  0.45771175583E+02  0.93809323683E+03  0.95495807528E+03  0.17200000000E+03 0.  1.
</event>
<event>
 4    1  0.5701701E+000  0.2566091E+03  0.7818608E-02  0.1109198E+00
         21   -1    0    0  503  502  0.00000000000E+00  0.00000000000E+00  0.10413059658E+04  0.10413059658E+04  0.00000000000E+00 0. -1.
         21   -1    0    0  501  503 -0.00000000000E+00 -0.00000000000E+00 -0.64681248735E+02  0.64681248735E+02  0.00000000000E+00 0. -1.
          6    1    1    2  501    0  0.12833441290E+03 -0.14069287835E+03  0.40565610182E+03  0.48000529215E+03  0.17200000000E+03 0. -1.
         -6    1    1    2    0  502 -0.12833441290E+03  0.14069287835E+03  0.57096861530E+03  0.62598192243E+03  0.17200000000E+03 0. -1.
</event>
<event>
 4    1  0.5701701E+000  0.1780045E+03  0.7818608E-02  0.1169748E+00
         21   -1    0    0  501  502  0.00000000000E+00  0.00000000000E+00  0.11526497485E+03  0.11526497485E+03  0.00000000000E+00 0.  1.
         21   -1    0    0  502  503 -0.00000000000E+00 -0.00000000000E+00 -0.45081356759E+03  0.45081356759E+03  0.00000000000E+00 0.  1.
          6    1    1    2  501    0  0.35178907651E+02 -0.29394932785E+02 -0.34458381000E+03  0.38784483977E+03  0.17200000000E+03 0.  1.
         -6    1    1    2    0  503 -0.35178907651E+02  0.29394932785E+02  0.90352172685E+01  0.17823370267E+03  0.17200000000E+03 0.  1.
</event>
<event>
 4    1  0.5701701E+000  0.2640339E+03  0.7818608E-02  0.1104744E+00
         21   -1    0    0  503  502  0.00000000000E+00  0.00000000000E+00  0.24718008747E+03  0.24718008747E+03  0.00000000000E+00 0. -1.
         21   -1    0    0  501  503 -0.00000000000E+00 -0.00000000000E+00 -0.36890775064E+03  0.36890775064E+03  0.00000000000E+00 0. -1.
          6    1    1    2  501    0 -0.17460910372E+02 -0.19956205266E+03 -0.21034651379E+03  0.33757895686E+03  0.17200000000E+03 0. -1.
         -6    1    1    2    0  502  0.17460910372E+02  0.19956205266E+03  0.88618850625E+02  0.27850888125E+03  0.17200000000E+03 0. -1.
</event>
<event>
 4    1  0.5701701E+000  0.5783141E+03  0.7818608E-02  0.9951448E-01
         21   -1    0    0  501  502  0.00000000000E+00  0.00000000000E+00  0.12715430112E+04  0.12715430112E+04  0.00000000000E+00 0.  1.
         21   -1    0    0  502  503 -0.00000000000E+00 -0.00000000000E+00 -0.26916661375E+03  0.26916661375E+03  0.00000000000E+00 0. -1.
          6    1    1    2  501    0 -0.52944854635E+03  0.15667632746E+03  0.38482072053E+03  0.69464683241E+03  0.17200000000E+03 0. -1.
         -6    1    1    2    0  503  0.52944854635E+03 -0.15667632746E+03  0.61755567690E+03  0.84606279253E+03  0.17200000000E+03 0.  1.
</event>
<event>
 4    1  0.5701701E+000  0.1906113E+03  0.7818608E-02  0.1157911E+00
         21   -1    0    0  503  502  0.00000000000E+00  0.00000000000E+00  0.30744049024E+03  0.30744049024E+03  0.00000000000E+00 0. -1.
         21   -1    0    0  501  503 -0.00000000000E+00 -0.00000000000E+00 -0.11948780591E+03  0.11948780591E+03  0.00000000000E+00 0. -1.
          6    1    1    2  501    0 -0.14056802551E+02 -0.80938708148E+02  0.71625957527E+02  0.20362452202E+03  0.17200000000E+03 0. -1.
         -6    1    1    2    0  502  0.14056802551E+02  0.80938708148E+02  0.11632672681E+03  0.22330377414E+03  0.17200000000E+03 0. -1.
</event>
<event>
 4    1  0.5701701E+000  0.2087158E+03  0.7818608E-02  0.1142587E+00
         21   -1    0    0  501  502  0.00000000000E+00  0.00000000000E+00  0.57483432999E+03  0.57483432999E+03  0.00000000000E+00 0. -1.
         21   -1    0    0  502  503 -0.00000000000E+00 -0.00000000000E+00 -0.19678863988E+03  0.19678863988E+03  0.00000000000E+00 0.  1.
          6    1    1    2  501    0 -0.67114631421E+02 -0.97334088610E+02  0.49156026966E+03  0.53403538953E+03  0.17200000000E+03 0. -1.
         -6    1    1    2    0  503  0.67114631421E+02  0.97334088610E+02 -0.11351457955E+03  0.23758758033E+03  0.17200000000E+03 0.  1.
</event>
<event>
 4    1  0.5701701E+000  0.2078935E+03  0.7818608E-02  0.1143245E+00
         21   -1    0    0  503  502  0.00000000000E+00  0.00000000000E+00  0.40024262371E+03  0.40024262371E+03  0.00000000000E+00 0.  1.
         21   -1    0    0  501  503 -0.00000000000E+00 -0.00000000000E+00 -0.11572586117E+03  0.11572586117E+03  0.00000000000E+00 0. -1.
          6    1    1    2  501    0  0.11631912349E+03  0.10274529325E+02  0.75530502530E+02  0.22118897182E+03  0.17200000000E+03 0.  1.
         -6    1    1    2    0  502 -0.11631912349E+03 -0.10274529325E+02  0.20898626001E+03  0.29477951305E+03  0.17200000000E+03 0.  1.
</event>
<event>
 4    1  0.5701701E+000  0.2047595E+03  0.7818608E-02  0.1145784E+00
         21   -1    0    0  501  502  0.00000000000E+00  0.00000000000E+00  0.41720498204E+03  0.41720498204E+03  0.00000000000E+00 0. -1.
         21   -1    0    0  502  503 -0.00000000000E+00 -0.00000000000E+00 -0.19362173099E+03  0.19362173099E+03  0.00000000000E+00 0.  1.
          6    1    1    2  501    0 -0.77786709075E+01  0.11082389156E+03  0.32360401170E+03  0.38294385887E+03  0.17200000000E+03 0. -1.
         -6    1    1    2    0  503  0.77786709075E+01 -0.11082389156E+03 -0.10002076064E+03  0.22788285416E+03  0.17200000000E+03 0.  1.
</event>
<event>
 4    1  0.5701701E+000  0.1741669E+03  0.7818608E-02  0.1173571E+00
         21   -1    0    0  503  502  0.00000000000E+00  0.00000000000E+00  0.18873229628E+03  0.18873229628E+03  0.00000000000E+00 0. -1.
         21   -1    0    0  501  503 -0.00000000000E+00 -0.00000000000E+00 -0.20898021636E+03  0.20898021636E+03  0.00000000000E+00 0. -1.
          6    1    1    2  501    0  0.16966718622E+02 -0.21499597714E+02 -0.10567960048E+03  0.20372108433E+03  0.17200000000E+03 0.  1.
         -6    1    1    2    0  502 -0.16966718622E+02  0.21499597714E+02  0.85431680395E+02  0.19399142831E+03  0.17200000000E+03 0.  1.
</event>
<event>
 4    1  0.5701701E+000  0.1852361E+03  0.7818608E-02  0.1162830E+00
         21   -1    0    0  501  502  0.00000000000E+00  0.00000000000E+00  0.12016072317E+03  0.12016072317E+03  0.00000000000E+00 0. -1.
         21   -1    0    0  502  503 -0.00000000000E+00 -0.00000000000E+00 -0.53567195311E+03  0.53567195311E+03  0.00000000000E+00 0. -1.
          6    1    1    2  501    0 -0.67165227722E+02 -0.14739689254E+02  0.16315391652E+02  0.18595326902E+03  0.17200000000E+03 0. -1.
         -6    1    1    2    0  503  0.67165227722E+02  0.14739689254E+02 -0.43182662159E+03  0.46987940726E+03  0.17200000000E+03 0. -1.
</event>
<event>
 4    1  0.5701701E+000  0.2392605E+03  0.7818608E-02  0.1120286E+00
         21   -1    0    0  503  502  0.00000000000E+00  0.00000000000E+00  0.19544797047E+03  0.19544797047E+03  0.00000000000E+00 0. -1.
         21   -1    0    0  501  503 -0.00000000000E+00 -0.00000000000E+00 -0.37097671509E+03  0.37097671509E+03  0.00000000000E+00 0. -1.
          6    1    1    2  501    0  0.12619400250E+02 -0.16583829402E+03 -0.21769620854E+03  0.32347678161E+03  0.17200000000E+03 0. -1.
         -6    1    1    2    0  502 -0.12619400250E+02  0.16583829402E+03  0.42167463918E+02  0.24294790396E+03  0.17200000000E+03 0. -1.
</event>
<event>
 4    1  0.5701701E+000  0.2086112E+03  0.7818608E-02  0.1142670E+00
         21   -1    0    0  503  502  0.00000000000E+00  0.00000000000E+00  0.48738623011E+02  0.48738623011E+02  0.00000000000E+00 0. -1.
         21   -1    0    0  501  503 -0.00000000000E+00 -0.00000000000E+00 -0.91344340875E+03  0.91344340875E+03  0.00000000000E+00 0.  1.
          6    1    1    2  501    0  0.30133998414E+02 -0.11413405287E+03 -0.50450288361E+03  0.54593204655E+03  0.17200000000E+03 0. -1.
         -6    1    1    2    0  502 -0.30133998414E+02  0.11413405287E+03 -0.36020190213E+03  0.41624998520E+03  0.17200000000E+03 0.  1.
</event>
<event>
 4    1  0.5701701E+000  0.2159880E+03  0.7818608E-02  0.1136910E+00
         21   -1    0    0  503  502  0.00000000000E+00  0.00000000000E+00  0.64543840391E+02  0.64543840391E+02  0.00000000000E+00 0. -1.
         21   -1    0    0  501  503 -0.00000000000E+00 -0.00000000000E+00 -0.82541345729E+03  0.82541345729E+03  0.00000000000E+00 0.  1.
          6    1    1    2  501    0 -0.74479780337E+02 -0.10732936129E+03 -0.53734580109E+03  0.57912981224E+03  0.17200000000E+03 0.  1.
         -6    1    1    2    0  502  0.74479780337E+02  0.10732936129E+03 -0.22352381581E+03  0.31082748544E+03  0.17200000000E+03 0. -1.
</event>
<event>
 4    1  0.5701701E+000  0.1741105E+03  0.7818608E-02  0.1173628E+00
         21   -1    0    0  501  502  0.00000000000E+00  0.00000000000E+00  0.31765097100E+03  0.31765097100E+03  0.00000000000E+00 0.  1.
         21   -1    0    0  502  503 -0.00000000000E+00 -0.00000000000E+00 -0.13029798958E+03  0.13029798958E+03  0.00000000000E+00 0.  1.
          6    1    1    2  501    0  0.16909974996E+01 -0.26973982483E+02  0.20953370334E+03  0.27243132720E+03  0.17200000000E+03 0.  1.
         -6    1    1    2    0  503 -0.16909974996E+01  0.26973982483E+02 -0.22180721924E+02  0.17551763338E+03  0.17200000000E+03 0.  1.
</event>
<event>
 4    1  0.5701701E+000  0.1764013E+03  0.7818608E-02  0.1171332E+00
         21   -1    0    0  501  502  0.00000000000E+00  0.00000000000E+00  0.78688004371E+03  0.78688004371E+03  0.00000000000E+00 0.  1.
         21   -1    0    0  502  503 -0.00000000000E+00 -0.00000000000E+00 -0.40488113365E+02  0.40488113365E+02  0.00000000000E+00 0.  1.
          6    1    1    2  501    0  0.39078686495E+02  0.25061651917E+01  0.43632263283E+03  0.47063240913E+03  0.17200000000E+03 0.  1.
         -6    1    1    2    0  503 -0.39078686495E+02 -0.25061651917E+01  0.31006929751E+03  0.35673574795E+03  0.17200000000E+03 0.  1.
</event>
<event>
 4    1  0.5701701E+000  0.2050814E+03  0.7818608E-02  0.1145521E+00
         21   -1    0    0  503  502  0.00000000000E+00  0.00000000000E+00  0.56722969974E+03  0.56722969974E+03  0.00000000000E+00 0. -1.
         21   -1    0    0  501  503 -0.00000000000E+00 -0.00000000000E+00 -0.80918908843E+02  0.80918908843E+02  0.00000000000E+00 0. -1.
          6    1    1    2  501    0  0.16000625730E+02 -0.11053669703E+03  0.14940457197E+03  0.25373235414E+03  0.17200000000E+03 0. -1.
         -6    1    1    2    0  502 -0.16000625730E+02  0.11053669703E+03  0.33690621893E+03  0.39441625444E+03  0.17200000000E+03 0. -1.
</event>
<event>
 4    1  0.5701701E+000  0.3438958E+03  0.7818608E-02  0.1065149E+00
         21   -1    0    0  501  502  0.00000000000E+00  0.00000000000E+00  0.72298922565E+03  0.72298922565E+03  0.00000000000E+00 0.  1.
         21   -1    0    0  502  503 -0.00000000000E+00 -0.00000000000E+00 -0.25903952470E+03  0.25903952470E+03  0.00000000000E+00 0. -1.
          6    1    1    2  501    0 -0.13890396751E+03  0.26341218653E+03  0.53005153965E+03  0.63183773779E+03  0.17200000000E+03 0.  1.
         -6    1    1    2    0  503  0.13890396751E+03 -0.26341218653E+03 -0.66101838698E+02  0.35019101257E+03  0.17200000000E+03 0. -1.
</event>
<event>
 4    1  0.5701701E+000  0.2089935E+03  0.7818608E-02  0.1142366E+00
         21   -1    0    0  503  502  0.00000000000E+00  0.00000000000E+00  0.79640414024E+02  0.79640414024E+02  0.00000000000E+00 0.  1.
         21   -1    0    0  501  503 -0.00000000000E+00 -0.00000000000E+00 -0.74787435439E+03  0.74787435439E+03  0.00000000000E+00 0.  1.
          6    1    1    2  501    0  0.78969143894E+01 -0.11845640629E+03 -0.54777903452E+03  0.58629357160E+03  0.17200000000E+03 0.  1.
         -6    1    1    2    0  502 -0.78969143894E+01  0.11845640629E+03 -0.12045490585E+03  0.24122119681E+03  0.17200000000E+03 0.  1.
</event>
<event>
 4    1  0.5701701E+000  0.1787387E+03  0.7818608E-02  0.1169029E+00
         21   -1    0    0  503  502  0.00000000000E+00  0.00000000000E+00  0.22812233854E+04  0.22812233854E+04  0.00000000000E+00 0.  1.
         21   -1    0    0  501  503 -0.00000000000E+00 -0.00000000000E+00 -0.19596484357E+02  0.19596484357E+02  0.00000000000E+00 0.  1.
          6    1    1    2  501    0 -0.38885064900E+02 -0.29179943107E+02  0.17453453006E+04  0.17544736349E+04  0.17200000000E+03 0.  1.
         -6    1    1    2    0  502  0.38885064900E+02  0.29179943107E+02  0.51628160049E+03  0.54634623487E+03  0.17200000000E+03 0.  1.
</event>
<event>
 4    1  0.5701701E+000  0.1815067E+03  0.7818608E-02  0.1166353E+00
         21   -1    0    0  503  502  0.00000000000E+00  0.00000000000E+00  0.37942677901E+02  0.37942677901E+02  0.00000000000E+00 0.  1.
         21   -1    0    0  501  503 -0.00000000000E+00 -0.00000000000E+00 -0.87333611836E+03  0.87333611836E+03  0.00000000000E+00 0. -1.
          6    1    1    2  501    0 -0.44831933593E+02  0.36753090060E+02 -0.45238149106E+03  0.48743584742E+03  0.17200000000E+03 0.  1.
         -6    1    1    2    0  502  0.44831933593E+02 -0.36753090060E+02 -0.38301194940E+03  0.42384294884E+03  0.17200000000E+03 0.  1.
</event>
<event>
 4    1  0.5701701E+000  0.2335692E+03  0.7818608E-02  0.1124153E+00
         21   -1    0    0  503  502  0.00000000000E+00  0.00000000000E+00  0.45529860725E+03  0.45529860725E+03  0.00000000000E+00 0. -1.
         21   -1    0    0  501  503 -0.00000000000E+00 -0.00000000000E+00 -0.17355135929E+03  0.17355135929E+03  0.00000000000E+00 0.  1.
          6    1    1    2  501    0 -0.77672521495E+02  0.13761378324E+03 -0.34075101518E+02  0.23604170495E+03  0.17200000000E+03 0. -1.
         -6    1    1    2    0  502  0.77672521495E+02 -0.13761378324E+03  0.31582234949E+03  0.39280826158E+03  0.17200000000E+03 0. -1.
</event>
<event>
 4    1  0.5701701E+000  0.1921202E+03  0.7818608E-02  0.1156563E+00
         21   -1    0    0  501  502  0.00000000000E+00  0.00000000000E+00  0.74453358487E+02  0.74453358487E+02  0.00000000000E+00 0. -1.
         21   -1    0    0  502  503 -0.00000000000E+00 -0.00000000000E+00 -0.76809177577E+03  0.76809177577E+03  0.00000000000E+00 0. -1.
          6    1    1    2  501    0  0.72458560729E+02  0.45562291362E+02 -0.95968873025E+02  0.21475611751E+03  0.17200000000E+03 0. -1.
         -6    1    1    2    0  503 -0.72458560729E+02 -0.45562291362E+02 -0.59766954426E+03  0.62778901675E+03  0.17200000000E+03 0. -1.
</event>
<event>
 4    1  0.5701701E+000  0.1858125E+03  0.7818608E-02  0.1162293E+00
         21   -1    0    0  503  502  0.00000000000E+00  0.00000000000E+00  0.44906637337E+03  0.44906637337E+03  0.00000000000E+00 0.  1.
         21   -1    0    0  501  503 -0.00000000000E+00 -0.00000000000E+00 -0.11427178301E+03  0.11427178301E+03  0.00000000000E+00 0.  1.
          6    1    1    2  501    0 -0.14608203182E+02  0.68766772035E+02  0.62840295450E+01  0.18591868535E+03  0.17200000000E+03 0.  1.
         -6    1    1    2    0  502  0.14608203182E+02 -0.68766772035E+02  0.32851056082E+03  0.37741947102E+03  0.17200000000E+03 0.  1.
</event>
<event>
 4    1  0.5701701E+000  0.2024799E+03  0.7818608E-02  0.1147663E+00
         21   -1    0    0  501  502  0.00000000000E+00  0.00000000000E+00  0.18109076673E+03  0.18109076673E+03  0.00000000000E+00 0. -1.
         21   -1    0    0  502  503 -0.00000000000E+00 -0.00000000000E+00 -0.52257606222E+03  0.52257606222E+03  0.00000000000E+00 0. -1.
          6    1    1    2  501    0  0.10535867509E+03  0.17709961409E+02  0.94132231548E+02  0.22329122277E+03  0.17200000000E+03 0. -1.
         -6    1    1    2    0  503 -0.10535867509E+03 -0.17709961409E+02 -0.43561752704E+03  0.48037560618E+03  0.17200000000E+03 0. -1.
</event>
<event>
 4    1  0.5701701E+000  0.2586429E+03  0.7818608E-02  0.1107961E+00
         21   -1    0    0  503  502  0.00000000000E+00  0.00000000000E+00  0.26576691157E+03  0.26576691157E+03  0.00000000000E+00 0.  1.
         21   -1    0    0  501  503 -0.00000000000E+00 -0.00000000000E+00 -0.39766949369E+03  0.39766949369E+03  0.00000000000E+00 0. -1.
          6    1    1    2  501    0  0.14529602175E+03 -0.12728391251E+03 -0.26691825931E+03  0.37167389668E+03  0.17200000000E+03 0.  1.
         -6    1    1    2    0  502 -0.14529602175E+03  0.12728391251E+03  0.13501567720E+03  0.29176250857E+03  0.17200000000E+03 0.  1.
</event>
<event>
 4    1  0.5701701E+000  0.1795362E+03  0.7818608E-02  0.1168253E+00
         21   -1    0    0  501  502  0.00000000000E+00  0.00000000000E+00  0.14276720949E+03  0.14276720949E+03  0.00000000000E+00 0.  1.
         21   -1    0    0  502  503 -0.00000000000E+00 -0.00000000000E+00 -0.25912567861E+03  0.25912567861E+03  0.00000000000E+00 0.  1.
          6    1    1    2  501    0  0.38191757571E+02 -0.34505772481E+02 -0.13026969568E+03  0.22181851206E+03  0.17200000000E+03 0.  1.
         -6    1    1    2    0  503 -0.38191757571E+02  0.34505772481E+02  0.13911226566E+02  0.18007437604E+03  0.17200000000E+03 0.  1.
</event>
<event>
 4    1  0.5701701E+000  0.2582852E+03  0.7818608E-02  0.1108178E+00
         21   -1    0    0  501  502  0.00000000000E+00  0.00000000000E+00  0.97881641829E+02  0.97881641829E+02  0.00000000000E+00 0.  1.
         21   -1    0    0  502  503 -0.00000000000E+00 -0.00000000000E+00 -0.84676436539E+03  0.84676436539E+03  0.00000000000E+00 0.  1.
          6    1    1    2  501    0 -0.81220430260E+01 -0.19251301159E+03 -0.16580894361E+03  0.30692642928E+03  0.17200000000E+03 0.  1.
         -6    1    1    2    0  503  0.81220430260E+01  0.19251301159E+03 -0.58307377995E+03  0.63771957793E+03  0.17200000000E+03 0.  1.
</event>
<event>
 4    1  0.5701701E+000  0.1797076E+03  0.7818608E-02  0.1168086E+00
         21   -1    0    0  503  502  0.00000000000E+00  0.00000000000E+00  0.20476830092E+03  0.20476830092E+03  0.00000000000E+00 0. -1.
         21   -1    0    0  501  503 -0.00000000000E+00 -0.00000000000E+00 -0.17333481115E+03  0.17333481115E+03  0.00000000000E+00 0. -1.
          6    1    1    2  501    0 -0.60633091501E+01  0.51711424631E+02 -0.41036232810E+02  0.18433341411E+03  0.17200000000E+03 0. -1.
         -6    1    1    2    0  502  0.60633091501E+01 -0.51711424631E+02  0.72469722581E+02  0.19376969796E+03  0.17200000000E+03 0. -1.
</event>
<event>
 4    1  0.5701701E+000  0.1851199E+03  0.7818608E-02  0.1162938E+00
         21   -1    0    0  501  502  0.00000000000E+00  0.00000000000E+00  0.75383641109E+03  0.75383641109E+03  0.00000000000E+00 0.  1.
         21   -1    0    0  502  503 -0.00000000000E+00 -0.00000000000E+00 -0.52386121069E+02  0.52386121069E+02  0.00000000000E+00 0. -1.
          6    1    1    2  501    0  0.63097962854E+02 -0.26533265868E+02  0.49730131077E+03  0.53063920022E+03  0.17200000000E+03 0.  1.
         -6    1    1    2    0  503 -0.63097962854E+02  0.26533265868E+02  0.20414897925E+03  0.27558333194E+03  0.17200000000E+03 0. -1.
</event>
<event>
 4    1  0.5701701E+000  0.1840736E+03  0.7818608E-02  0.1163918E+00
         21   -1    0    0  503  502  0.00000000000E+00  0.00000000000E+00  0.35905139142E+03  0.35905139142E+03  0.00000000000E+00 0. -1.
         21   -1    0    0  501  503 -0.00000000000E+00 -0.00000000000E+00 -0.10445273434E+03  0.10445273434E+03  0.00000000000E+00 0. -1.
          6    1    1    2  501    0  0.56734439952E+02  0.32867958793E+02  0.19930847709E+03  0.27130604201E+03  0.17200000000E+03 0. -1.
         -6    1    1    2    0  502 -0.56734439952E+02 -0.32867958793E+02  0.55290179991E+02  0.19219808375E+03  0.17200000000E+03 0. -1.
</event>
<event>
 4    1  0.5701701E+000  0.1758670E+03  0.7818608E-02  0.1171864E+00
         21   -1    0    0  503  502  0.00000000000E+00  0.00000000000E+00  0.15763421117E+03  0.15763421117E+03  0.00000000000E+00 0.  1.
         21   -1    0    0  501  503 -0.00000000000E+00 -0.00000000000E+00 -0.31710574844E+03  0.31710574844E+03  0.00000000000E+00 0.  1.
          6    1    1    2  501    0  0.25722241575E+02 -0.26145446027E+02 -0.22630115604E+03  0.28660326461E+03  0.17200000000E+03 0.  1.
         -6    1    1    2    0  502 -0.25722241575E+02  0.26145446027E+02  0.66829618767E+02  0.18813669500E+03  0.17200000000E+03 0.  1.
</event>
<event>
 4    1  0.5701701E+000  0.2144564E+03  0.7818608E-02  0.1138085E+00
         21   -1    0    0  501  502  0.00000000000E+00  0.00000000000E+00  0.73825878031E+03  0.73825878031E+03  0.00000000000E+00 0.  1.
         21   -1    0    0  502  503 -0.00000000000E+00 -0.00000000000E+00 -0.16665863177E+03  0.16665863177E+03  0.00000000000E+00 0. -1.
          6    1    1    2  501    0 -0.11923059800E+03 -0.46814459384E+02  0.64384279474E+03  0.67861997720E+03  0.17200000000E+03 0.  1.
         -6    1    1    2    0  503  0.11923059800E+03  0.46814459384E+02 -0.72242646204E+02  0.22629743489E+03  0.17200000000E+03 0. -1.
</event>
<event>
 4    1  0.5701701E+000  0.2119052E+03  0.7818608E-02  0.1140066E+00
         21   -1    0    0  503  502  0.00000000000E+00  0.00000000000E+00  0.21127121537E+03  0.21127121537E+03  0.00000000000E+00 0. -1.
         21   -1    0    0  501  503 -0.00000000000E+00 -0.00000000000E+00 -0.29709359762E+03  0.29709359762E+03  0.00000000000E+00 0. -1.
          6    1    1    2  501    0 -0.26854787463E+02  0.12082475107E+03 -0.17851199398E+03  0.27707459659E+03  0.17200000000E+03 0. -1.
         -6    1    1    2    0  502  0.26854787463E+02 -0.12082475107E+03  0.92689611731E+02  0.23129021640E+03  0.17200000000E+03 0. -1.
</event>
<event>
 4    1  0.5701701E+000  0.2198591E+03  0.7818608E-02  0.1133988E+00
         21   -1    0    0  503  502  0.00000000000E+00  0.00000000000E+00  0.30487629146E+03  0.30487629146E+03  0.00000000000E+00 0.  1.
         21   -1    0    0  501  503 -0.00000000000E+00 -0.00000000000E+00 -0.15876581001E+03  0.15876581001E+03  0.00000000000E+00 0. -1.
          6    1    1    2  501    0 -0.12632407867E+03 -0.52879532265E+02  0.81609846665E+02  0.23451691806E+03  0.17200000000E+03 0. -1.
         -6    1    1    2    0  502  0.12632407867E+03  0.52879532265E+02  0.64500634788E+02  0.22912518341E+03  0.17200000000E+03 0.  1.
</event>
<event>
 4    1  0.5701701E+000  0.2746718E+03  0.7818608E-02  0.1098635E+00
         21   -1    0    0  503  502  0.00000000000E+00  0.00000000000E+00  0.14980538044E+03  0.14980538044E+03  0.00000000000E+00 0. -1.
         21   -1    0    0  501  503 -0.00000000000E+00 -0.00000000000E+00 -0.10180046113E+04  0.10180046113E+04  0.00000000000E+00 0. -1.
          6    1    1    2  501    0 -0.95354532646E+02 -0.19175009313E+03 -0.84916109611E+03  0.89247921671E+03  0.17200000000E+03 0. -1.
         -6    1    1    2    0  502  0.95354532646E+02  0.19175009313E+03 -0.19038134755E+02  0.27533077504E+03  0.17200000000E+03 0. -1.
</event>
<event>
 4    1  0.5701701E+000  0.1747687E+03  0.7818608E-02  0.1172964E+00
         21   -1    0    0  501  502  0.00000000000E+00  0.00000000000E+00  0.23280555586E+03  0.23280555586E+03  0.00000000000E+00 0.  1.
         21   -1    0    0  502  503 -0.00000000000E+00 -0.00000000000E+00 -0.13862965810E+03  0.13862965810E+03  0.00000000000E+00 0.  1.
          6    1    1    2  501    0  0.99477219138E+01  0.29345083596E+02  0.40938209334E+01  0.17481661955E+03  0.17200000000E+03 0.  1.
         -6    1    1    2    0  503 -0.99477219138E+01 -0.29345083596E+02  0.90082076830E+02  0.19661859441E+03  0.17200000000E+03 0.  1.
</event>
<event>
 4    1  0.5701701E+000  0.1825706E+03  0.7818608E-02  0.1165338E+00
         21   -1    0    0  503  502  0.00000000000E+00  0.00000000000E+00  0.12981923404E+03  0.12981923404E+03  0.00000000000E+00 0. -1.
         21   -1    0    0  501  503 -0.00000000000E+00 -0.00000000000E+00 -0.37487031707E+03  0.37487031707E+03  0.00000000000E+00 0. -1.
          6    1    1    2  501    0 -0.50212467800E+02  0.35024699752E+02 -0.26417107289E+03  0.32112050272E+03  0.17200000000E+03 0. -1.
         -6    1    1    2    0  502  0.50212467800E+02 -0.35024699752E+02  0.19119989864E+02  0.18356904839E+03  0.17200000000E+03 0. -1.
</event>
<event>
 4    1  0.5701701E+000  0.1783299E+03  0.7818608E-02  0.1169429E+00
         21   -1    0    0  503  502  0.00000000000E+00  0.00000000000E+00  0.80822259492E+02  0.80822259492E+02  0.00000000000E+00 0. -1.
         21   -1    0    0  501  503 -0.00000000000E+00 -0.00000000000E+00 -0.10153146879E+04  0.10153146879E+04  0.00000000000E+00 0. -1.
          6    1    1    2  501    0 -0.32697063313E+02 -0.33888841455E+02 -0.38328829802E+02  0.18240244165E+03  0.17200000000E+03 0. -1.
         -6    1    1    2    0  502  0.32697063313E+02  0.33888841455E+02 -0.89616359857E+03  0.91373450571E+03  0.17200000000E+03 0. -1.
</event>
<event>
 4    1  0.5701701E+000  0.1885341E+03  0.7818608E-02  0.1159790E+00
         21   -1    0    0  503  502  0.00000000000E+00  0.00000000000E+00  0.16792362339E+03  0.16792362339E+03  0.00000000000E+00 0.  1.
         21   -1    0    0  501  503 -0.00000000000E+00 -0.00000000000E+00 -0.23056224288E+03  0.23056224288E+03  0.00000000000E+00 0.  1.
          6    1    1    2  501    0 -0.54596192268E+02 -0.54592828317E+02 -0.88346342389E+02  0.20820710201E+03  0.17200000000E+03 0.  1.
         -6    1    1    2    0  502  0.54596192268E+02  0.54592828317E+02  0.25707722894E+02  0.19027876427E+03  0.17200000000E+03 0.  1.
</event>
<event>
 4    1  0.5701701E+000  0.1988725E+03  0.7818608E-02  0.1150694E+00
         21   -1    0    0  503  502  0.00000000000E+00  0.00000000000E+00  0.13555378927E+03  0.13555378927E+03  0.00000000000E+00 0.  1.
         21   -1    0    0  501  503 -0.00000000000E+00 -0.00000000000E+00 -0.29700895507E+03  0.29700895507E+03  0.00000000000E+00 0.  1.
          6    1    1    2  501    0 -0.98433409929E+02 -0.16647936203E+02 -0.51997969186E+02  0.20555796936E+03  0.17200000000E+03 0.  1.
         -6    1    1    2    0  502  0.98433409929E+02  0.16647936203E+02 -0.10945719661E+03  0.22700477497E+03  0.17200000000E+03 0.  1.
</event>
<event>
 4    1  0.5701701E+000  0.2153357E+03  0.7818608E-02  0.1137409E+00
         21   -1    0    0  501  502  0.00000000000E+00  0.00000000000E+00  0.50891867200E+03  0.50891867200E+03  0.00000000000E+00 0. -1.
         21   -1    0    0  502  503 -0.00000000000E+00 -0.00000000000E+00 -0.96572838705E+02  0.96572838705E+02  0.00000000000E+00 0. -1.
          6    1    1    2  501    0  0.12253916127E+03 -0.42067022255E+02  0.27815282412E+03  0.35176479923E+03  0.17200000000E+03 0. -1.
         -6    1    1    2    0  503 -0.12253916127E+03  0.42067022255E+02  0.13419300917E+03  0.25372671148E+03  0.17200000000E+03 0. -1.
</event>
<event>
 4    1  0.5701701E+000  0.1940625E+03  0.7818608E-02  0.1154847E+00
         21   -1    0    0  503  502  0.00000000000E+00  0.00000000000E+00  0.32622628382E+03  0.32622628382E+03  0.00000000000E+00 0.  1.
         21   -1    0    0  501  503 -0.00000000000E+00 -0.00000000000E+00 -0.12006792274E+03  0.12006792274E+03  0.00000000000E+00 0.  1.
          6    1    1    2  501    0  0.29851088177E+02  0.84765464470E+02  0.59279718844E+02  0.20291465324E+03  0.17200000000E+03 0.  1.
         -6    1    1    2    0  502 -0.29851088177E+02 -0.84765464470E+02  0.14687864223E+03  0.24337955332E+03  0.17200000000E+03 0.  1.
</event>
<event>
 4    1  0.5701701E+000  0.1806823E+03  0.7818608E-02  0.1167144E+00
         21   -1    0    0  503  502  0.00000000000E+00  0.00000000000E+00  0.16183082184E+03  0.16183082184E+03  0.00000000000E+00 0. -1.
         21   -1    0    0  501  503 -0.00000000000E+00 -0.00000000000E+00 -0.21193819379E+03  0.21193819379E+03  0.00000000000E+00 0. -1.
          6    1    1    2  501    0  0.21172472671E+02  0.51125535857E+02  0.15961821741E+02  0.18138598008E+03  0.17200000000E+03 0. -1.
         -6    1    1    2    0  502 -0.21172472671E+02 -0.51125535857E+02 -0.66069193685E+02  0.19238303556E+03  0.17200000000E+03 0. -1.
</event>
<event>
 4    1  0.5701701E+000  0.2063887E+03  0.7818608E-02  0.1144458E+00
         21   -1    0    0  503  502  0.00000000000E+00  0.00000000000E+00  0.99953801684E+03  0.99953801684E+03  0.00000000000E+00 0.  1.
         21   -1    0    0  501  503 -0.00000000000E+00 -0.00000000000E+00 -0.43165909023E+02  0.43165909023E+02  0.00000000000E+00 0. -1.
          6    1    1    2  501    0 -0.11006889942E+03  0.29951992117E+02  0.41934005716E+03  0.46737818518E+03  0.17200000000E+03 0. -1.
         -6    1    1    2    0  502  0.11006889942E+03 -0.29951992117E+02  0.53703205066E+03  0.57532574068E+03  0.17200000000E+03 0.  1.
</event>
<event>
 4    1  0.5701701E+000  0.2944999E+03  0.7818608E-02  0.1088023E+00
         21   -1    0    0  501  502  0.00000000000E+00  0.00000000000E+00  0.32679435301E+03  0.32679435301E+03  0.00000000000E+00 0. -1.
         21   -1    0    0  502  503 -0.00000000000E+00 -0.00000000000E+00 -0.61168234650E+03  0.61168234650E+03  0.00000000000E+00 0.  1.
          6    1    1    2  501    0  0.14671509726E+03  0.18873485980E+03  0.21061535887E+03  0.36206214447E+03  0.17200000000E+03 0. -1.
         -6    1    1    2    0  503 -0.14671509726E+03 -0.18873485980E+03 -0.49550335236E+03  0.57641455504E+03  0.17200000000E+03 0.  1.
</event>
<event>
 4    1  0.5701701E+000  0.1767787E+03  0.7818608E-02  0.1170958E+00
         21   -1    0    0  503  502  0.00000000000E+00  0.00000000000E+00  0.84632746866E+03  0.84632746866E+03  0.00000000000E+00 0. -1.
         21   -1    0    0  501  503 -0.00000000000E+00 -0.00000000000E+00 -0.38173440781E+02  0.38173440781E+02  0.00000000000E+00 0. -1.
          6    1    1    2  501    0 -0.19643558227E+02  0.35788682477E+02  0.32410098938E+03  0.36917766792E+03  0.17200000000E+03 0. -1.
         -6    1    1    2    0  502  0.19643558227E+02 -0.35788682477E+02  0.48405303850E+03  0.51532324152E+03  0.17200000000E+03 0. -1.
</event>
<event>
 4    1  0.5701701E+000  0.1985229E+03  0.7818608E-02  0.1150991E+00
         21   -1    0    0  503  502  0.00000000000E+00  0.00000000000E+00  0.79409468915E+03  0.79409468915E+03  0.00000000000E+00 0.  1.
         21   -1    0    0  501  503 -0.00000000000E+00 -0.00000000000E+00 -0.76176118501E+02  0.76176118501E+02  0.00000000000E+00 0.  1.
          6    1    1    2  501    0 -0.88162817638E+02  0.45328380267E+02  0.61582795478E+03  0.64703586791E+03  0.17200000000E+03 0.  1.
         -6    1    1    2    0  502  0.88162817638E+02 -0.45328380267E+02  0.10209061586E+03  0.22323493973E+03  0.17200000000E+03 0.  1.
</event>
<event>
 4    1  0.5701701E+000  0.1974067E+03  0.7818608E-02  0.1151946E+00
         21   -1    0    0  501  502  0.00000000000E+00  0.00000000000E+00  0.30236409560E+03  0.30236409560E+03  0.00000000000E+00 0.  1.
         21   -1    0    0  502  503 -0.00000000000E+00 -0.00000000000E+00 -0.14503071538E+03  0.14503071538E+03  0.00000000000E+00 0.  1.
          6    1    1    2  501    0 -0.86937368262E+02 -0.42746755915E+02  0.15331077815E+03  0.24994716610E+03  0.17200000000E+03 0.  1.
         -6    1    1    2    0  503  0.86937368262E+02  0.42746755915E+02  0.40226020603E+01  0.19744764488E+03  0.17200000000E+03 0.  1.
</event>
<event>
 4    1  0.5701701E+000  0.2199996E+03  0.7818608E-02  0.1133883E+00
         21   -1    0    0  503  502  0.00000000000E+00  0.00000000000E+00  0.16975528892E+03  0.16975528892E+03  0.00000000000E+00 0. -1.
         21   -1    0    0  501  503 -0.00000000000E+00 -0.00000000000E+00 -0.32053387272E+03  0.32053387272E+03  0.00000000000E+00 0.  1.
          6    1    1    2  501    0  0.11062378152E+03 -0.81106003063E+02 -0.15687881491E+03  0.27020504684E+03  0.17200000000E+03 0.  1.
         -6    1    1    2    0  502 -0.11062378152E+03  0.81106003063E+02  0.61002311103E+01  0.22008411480E+03  0.17200000000E+03 0. -1.
</event>
<event>
 4    1  0.5701701E+000  0.1977765E+03  0.7818608E-02  0.1151629E+00
         21   -1    0    0  501  502  0.00000000000E+00  0.00000000000E+00  0.21633221015E+03  0.21633221015E+03  0.00000000000E+00 0.  1.
         21   -1    0    0  502  503 -0.00000000000E+00 -0.00000000000E+00 -0.24801412564E+03  0.24801412564E+03  0.00000000000E+00 0.  1.
          6    1    1    2  501    0 -0.97265615921E+02  0.84235073769E+01  0.10501383863E+03  0.22392735836E+03  0.17200000000E+03 0.  1.
         -6    1    1    2    0  503  0.97265615921E+02 -0.84235073769E+01 -0.13669575412E+03  0.24041897744E+03  0.17200000000E+03 0.  1.
</event>
<event>
 4    1  0.5701701E+000  0.2142273E+03  0.7818608E-02  0.1138261E+00
         21   -1    0    0  501  502  0.00000000000E+00  0.00000000000E+00  0.21145110265E+03  0.21145110265E+03  0.00000000000E+00 0. -1.
         21   -1    0    0  502  503 -0.00000000000E+00 -0.00000000000E+00 -0.25612999710E+03  0.25612999710E+03  0.00000000000E+00 0. -1.
          6    1    1    2  501    0  0.12720567241E+03 -0.11315844613E+02  0.68994024583E+02  0.22506333966E+03  0.17200000000E+03 0. -1.
         -6    1    1    2    0  503 -0.12720567241E+03  0.11315844613E+02 -0.11367291903E+03  0.24251776008E+03  0.17200000000E+03 0. -1.
</event>
<event>
 4    1  0.5701701E+000  0.2082521E+03  0.7818608E-02  0.1142958E+00
         21   -1    0    0  501  502  0.00000000000E+00  0.00000000000E+00  0.24939132983E+03  0.24939132983E+03  0.00000000000E+00 0. -1.
         21   -1    0    0  502  503 -0.00000000000E+00 -0.00000000000E+00 -0.23542367763E+03  0.23542367763E+03  0.00000000000E+00 0.  1.
          6    1    1    2  501    0 -0.11720779614E+03 -0.68744016883E+01  0.13090495223E+03  0.24597770507E+03  0.17200000000E+03 0.  1.
         -6    1    1    2    0  503  0.11720779614E+03  0.68744016883E+01 -0.11693730002E+03  0.23883730239E+03  0.17200000000E+03 0.  1.
</event>
<event>
 4    1  0.5701701E+000  0.2094657E+03  0.7818608E-02  0.1141990E+00
         21   -1    0    0  501  502  0.00000000000E+00  0.00000000000E+00  0.52428829481E+03  0.52428829481E+03  0.00000000000E+00 0.  1.
         21   -1    0    0  502  503 -0.00000000000E+00 -0.00000000000E+00 -0.26759629778E+03  0.26759629778E+03  0.00000000000E+00 0.  1.
          6    1    1    2  501    0  0.11069743056E+03 -0.45143869829E+02  0.45658803288E+03  0.50234303208E+03  0.17200000000E+03 0.  1.
         -6    1    1    2    0  503 -0.11069743056E+03  0.45143869829E+02 -0.19989603585E+03  0.28954156051E+03  0.17200000000E+03 0.  1.
</event>
<event>
 4    1  0.5701701E+000  0.1819242E+03  0.7818608E-02  0.1165954E+00
         21   -1    0    0  503  502  0.00000000000E+00  0.00000000000E+00  0.34253129051E+03  0.34253129051E+03  0.00000000000E+00 0.  1.
         21   -1    0    0  501  503 -0.00000000000E+00 -0.00000000000E+00 -0.11662899770E+03  0.11662899770E+03  0.00000000000E+00 0.  1.
          6    1    1    2  501    0  0.13900654248E+01 -0.59249360589E+02  0.17866458505E+02  0.18279942383E+03  0.17200000000E+03 0.  1.
         -6    1    1    2    0  502 -0.13900654248E+01  0.59249360589E+02  0.20803583430E+03  0.27636086439E+03  0.17200000000E+03 0.  1.
</event>
<event>
 4    1  0.5701701E+000  0.2448830E+03  0.7818608E-02  0.1116582E+00
         21   -1    0    0  501  502  0.00000000000E+00  0.00000000000E+00  0.36442749360E+03  0.36442749360E+03  0.00000000000E+00 0.  1.
         21   -1    0    0  502  503 -0.00000000000E+00 -0.00000000000E+00 -0.37803480666E+03  0.37803480666E+03  0.00000000000E+00 0.  1.
          6    1    1    2  501    0 -0.11870995977E+03  0.12763868666E+03  0.27216718188E+03  0.36611837399E+03  0.17200000000E+03 0.  1.
         -6    1    1    2    0  503  0.11870995977E+03 -0.12763868666E+03 -0.28577449495E+03  0.37634392627E+03  0.17200000000E+03 0.  1.
</event>
<event>
 4    1  0.5701701E+000  0.4186022E+03  0.7818608E-02  0.1037522E+00
         21   -1    0    0  503  502  0.00000000000E+00  0.00000000000E+00  0.65796748071E+03  0.65796748071E+03  0.00000000000E+00 0. -1.
         21   -1    0    0  501  503 -0.00000000000E+00 -0.00000000000E+00 -0.26683392606E+03  0.26683392606E+03  0.00000000000E+00 0. -1.
          6    1    1    2  501    0 -0.15533365713E+03  0.34859041609E+03  0.17521147755E+03  0.45379167587E+03  0.17200000000E+03 0. -1.
         -6    1    1    2    0  502  0.15533365713E+03 -0.34859041609E+03  0.21592207709E+03  0.47100973090E+03  0.17200000000E+03 0. -1.
</event>
<event>
 4    1  0.5701701E+000  0.3065938E+03  0.7818608E-02  0.1081990E+00
         21   -1    0    0  503  502  0.00000000000E+00  0.00000000000E+00  0.58828775593E+02  0.58828775593E+02  0.00000000000E+00 0. -1.
         21   -1    0    0  501  503 -0.00000000000E+00 -0.00000000000E+00 -0.15992337342E+04  0.15992337342E+04  0.00000000000E+00 0.  1.
          6    1    1    2  501    0 -0.24726649889E+03 -0.57227898078E+02 -0.79455933612E+03  0.85165972806E+03  0.17200000000E+03 0.  1.
         -6    1    1    2    0  502  0.24726649889E+03  0.57227898078E+02 -0.74584562245E+03  0.80640278169E+03  0.17200000000E+03 0. -1.
</event>
<event>
 4    1  0.5701701E+000  0.2086634E+03  0.7818608E-02  0.1142629E+00
         21   -1    0    0  501  502  0.00000000000E+00  0.00000000000E+00  0.11719996202E+03  0.11719996202E+03  0.00000000000E+00 0.  1.
         21   -1    0    0  502  503 -0.00000000000E+00 -0.00000000000E+00 -0.48171608973E+03  0.48171608973E+03  0.00000000000E+00 0. -1.
          6    1    1    2  501    0 -0.83889166964E+02  0.83180632443E+02 -0.39021996212E+02  0.21228077194E+03  0.17200000000E+03 0.  1.
         -6    1    1    2    0  503  0.83889166964E+02 -0.83180632443E+02 -0.32549413150E+03  0.38663527980E+03  0.17200000000E+03 0. -1.
</event>
<event>
 4    1  0.5701701E+000  0.1793227E+03  0.7818608E-02  0.1168460E+00
         21   -1    0    0  501  502  0.00000000000E+00  0.00000000000E+00  0.63868610783E+02  0.63868610783E+02  0.00000000000E+00 0.  1.
         21   -1    0    0  502  503 -0.00000000000E+00 -0.00000000000E+00 -0.74204534317E+03  0.74204534317E+03  0.00000000000E+00 0.  1.
          6    1    1    2  501    0  0.46920749697E+02 -0.19263699987E+02 -0.11060951192E+03  0.21069198138E+03  0.17200000000E+03 0.  1.
         -6    1    1    2    0  503 -0.46920749697E+02  0.19263699987E+02 -0.56756722046E+03  0.59522197257E+03  0.17200000000E+03 0.  1.
</event>
<event>
 4    1  0.5701701E+000  0.2127906E+03  0.7818608E-02  0.1139375E+00
         21   -1    0    0  501  502  0.00000000000E+00  0.00000000000E+00  0.11988107930E+04  0.11988107930E+04  0.00000000000E+00 0.  1.
         21   -1    0    0  502  503 -0.00000000000E+00 -0.00000000000E+00 -0.41654529876E+02  0.41654529876E+02  0.00000000000E+00 0.  1.
          6    1    1    2  501    0 -0.64236796330E+01  0.12511829597E+03  0.76796808276E+03  0.79690327380E+03  0.17200000000E+03 0.  1.
         -6    1    1    2    0  503  0.64236796330E+01 -0.12511829597E+03  0.38918818033E+03  0.44356204904E+03  0.17200000000E+03 0.  1.
</event>
<event>
 4    1  0.5701701E+000  0.4891070E+03  0.7818608E-02  0.1016662E+00
         21   -1    0    0  501  502  0.00000000000E+00  0.00000000000E+00  0.51300364531E+03  0.51300364531E+03  0.00000000000E+00 0.  1.
         21   -1    0    0  502  503 -0.00000000000E+00 -0.00000000000E+00 -0.62766866829E+03  0.62766866829E+03  0.00000000000E+00 0. -1.
          6    1    1    2  501    0  0.31684408214E+03  0.33053206085E+03  0.23183118389E+03  0.54126824538E+03  0.17200000000E+03 0.  1.
         -6    1    1    2    0  503 -0.31684408214E+03 -0.33053206085E+03 -0.34649620686E+03  0.59940406822E+03  0.17200000000E+03 0. -1.
</event>
<event>
 4    1  0.5701701E+000  0.2316306E+03  0.7818608E-02  0.1125497E+00
         21   -1    0    0  503  502  0.00000000000E+00  0.00000000000E+00  0.94897334902E+03  0.94897334902E+03  0.00000000000E+00 0. -1.
         21   -1    0    0  501  503 -0.00000000000E+00 -0.00000000000E+00 -0.73818791969E+02  0.73818791969E+02  0.00000000000E+00 0.  1.
          6    1    1    2  501    0 -0.69201774733E+02  0.13885181806E+03  0.68501178905E+03  0.72311400494E+03  0.17200000000E+03 0. -1.
         -6    1    1    2    0  502  0.69201774733E+02 -0.13885181806E+03  0.19014276801E+03  0.29967813605E+03  0.17200000000E+03 0.  1.
</event>
<event>
 4    1  0.5701701E+000  0.1859456E+03  0.7818608E-02  0.1162170E+00
         21   -1    0    0  501  502  0.00000000000E+00  0.00000000000E+00  0.22770206592E+03  0.22770206592E+03  0.00000000000E+00 0.  1.
         21   -1    0    0  502  503 -0.00000000000E+00 -0.00000000000E+00 -0.15361637133E+03  0.15361637133E+03  0.00000000000E+00 0. -1.
          6    1    1    2  501    0  0.58156104198E+02  0.40120232898E+02  0.16578030400E+02  0.18668314502E+03  0.17200000000E+03 0. -1.
         -6    1    1    2    0  503 -0.58156104198E+02 -0.40120232898E+02  0.57507664188E+02  0.19463529224E+03  0.17200000000E+03 0.  1.
</event>
<event>
 4    1  0.5701701E+000  0.1979479E+03  0.7818608E-02  0.1151482E+00
         21   -1    0    0  503  502  0.00000000000E+00  0.00000000000E+00  0.65824372079E+02  0.65824372079E+02  0.00000000000E+00 0.  1.
         21   -1    0    0  501  503 -0.00000000000E+00 -0.00000000000E+00 -0.66759648398E+03  0.66759648398E+03  0.00000000000E+00 0. -1.
          6    1    1    2  501    0  0.97790032921E+02 -0.60415206097E+01 -0.18018540826E+03  0.26767549731E+03  0.17200000000E+03 0.  1.
         -6    1    1    2    0  502 -0.97790032921E+02  0.60415206097E+01 -0.42158670364E+03  0.46574535875E+03  0.17200000000E+03 0. -1.
</event>
<event>
 4    1  0.5701701E+000  0.2220468E+03  0.7818608E-02  0.1132366E+00
         21   -1    0    0  501  502  0.00000000000E+00  0.00000000000E+00  0.69309385926E+02  0.69309385926E+02  0.00000000000E+00 0. -1.
         21   -1    0    0  502  503 -0.00000000000E+00 -0.00000000000E+00 -0.21918650315E+04  0.21918650315E+04  0.00000000000E+00 0.  1.
          6    1    1    2  501    0 -0.70312811830E+01  0.14025461290E+03 -0.13209694179E+03  0.25836872370E+03  0.17200000000E+03 0. -1.
         -6    1    1    2    0  503  0.70312811830E+01 -0.14025461290E+03 -0.19904587038E+04  0.20028056937E+04  0.17200000000E+03 0.  1.
</event>
<event>
 4    1  0.5701701E+000  0.1934458E+03  0.7818608E-02  0.1155390E+00
         21   -1    0    0  503  502  0.00000000000E+00  0.00000000000E+00  0.60549110528E+02  0.60549110528E+02  0.00000000000E+00 0. -1.
         21   -1    0    0  501  503 -0.00000000000E+00 -0.00000000000E+00 -0.84623437536E+03  0.84623437536E+03  0.00000000000E+00 0. -1.
          6    1    1    2  501    0  0.27752313361E+02 -0.84066009252E+02 -0.62828705321E+03  0.65739326589E+03  0.17200000000E+03 0. -1.
         -6    1    1    2    0  502 -0.27752313361E+02  0.84066009252E+02 -0.15739821163E+03  0.24939022000E+03  0.17200000000E+03 0. -1.
</event>
<event>
 4    1  0.5701701E+000  0.1864070E+03  0.7818608E-02  0.1161742E+00
         21   -1    0    0  503  502  0.00000000000E+00  0.00000000000E+00  0.37976759452E+02  0.37976759452E+02  0.00000000000E+00 0. -1.
         21   -1    0    0  501  503 -0.00000000000E+00 -0.00000000000E+00 -0.13720447126E+04  0.13720447126E+04  0.00000000000E+00 0. -1.
          6    1    1    2  501    0  0.65799896232E+02 -0.28878314534E+02 -0.10739505216E+04  0.10900079386E+04  0.17200000000E+03 0. -1.
         -6    1    1    2    0  502 -0.65799896232E+02  0.28878314534E+02 -0.26011743159E+03  0.32001353349E+03  0.17200000000E+03 0. -1.
</event>
<event>
 4    1  0.5701701E+000  0.1761820E+03  0.7818608E-02  0.1171550E+00
         21   -1    0    0  501  502  0.00000000000E+00  0.00000000000E+00  0.44615401366E+02  0.44615401366E+02  0.00000000000E+00 0. -1.
         21   -1    0    0  502  503 -0.00000000000E+00 -0.00000000000E+00 -0.82282334910E+03  0.82282334910E+03  0.00000000000E+00 0. -1.
          6    1    1    2  501    0  0.94594418937E+01  0.36967942839E+02 -0.21864369772E+03  0.28079383254E+03  0.17200000000E+03 0.  1.
         -6    1    1    2    0  503 -0.94594418937E+01 -0.36967942839E+02 -0.55956425001E+03  0.58664491792E+03  0.17200000000E+03 0.  1.
</event>
<event>
 4    1  0.5701701E+000  0.1954745E+03  0.7818608E-02  0.1153614E+00
         21   -1    0    0  501  502  0.00000000000E+00  0.00000000000E+00  0.28927283604E+03  0.28927283604E+03  0.00000000000E+00 0. -1.
         21   -1    0    0  502  503 -0.00000000000E+00 -0.00000000000E+00 -0.75368902311E+03  0.75368902311E+03  0.00000000000E+00 0.  1.
          6    1    1    2  501    0  0.54630669163E+02 -0.75111798851E+02  0.24137610519E+03  0.31060057388E+03  0.17200000000E+03 0. -1.
         -6    1    1    2    0  503 -0.54630669163E+02  0.75111798851E+02 -0.70579229226E+03  0.73236128526E+03  0.17200000000E+03 0.  1.
</event>
<event>
 4    1  0.5701701E+000  0.2059835E+03  0.7818608E-02  0.1144787E+00
         21   -1    0    0  503  502  0.00000000000E+00  0.00000000000E+00  0.31502634167E+03  0.31502634167E+03  0.00000000000E+00 0.  1.
         21   -1    0    0  501  503 -0.00000000000E+00 -0.00000000000E+00 -0.89904436568E+03  0.89904436568E+03  0.00000000000E+00 0.  1.
          6    1    1    2  501    0 -0.71536225548E+02 -0.87907830816E+02 -0.85173092941E+03  0.87628465375E+03  0.17200000000E+03 0.  1.
         -6    1    1    2    0  502  0.71536225548E+02  0.87907830816E+02  0.26771290541E+03  0.33778605360E+03  0.17200000000E+03 0.  1.
</event>
<event>
 4    1  0.5701701E+000  0.1770558E+03  0.7818608E-02  0.1170683E+00
         21   -1    0    0  501  502  0.00000000000E+00  0.00000000000E+00  0.80016593920E+02  0.80016593920E+02  0.00000000000E+00 0.  1.
         21   -1    0    0  502  503 -0.00000000000E+00 -0.00000000000E+00 -0.51180968578E+03  0.51180968578E+03  0.00000000000E+00 0.  1.
          6    1    1    2  501    0 -0.22343790591E+02 -0.35574273893E+02 -0.72592909528E+02  0.19135962075E+03  0.17200000000E+03 0.  1.
         -6    1    1    2    0  503  0.22343790591E+02  0.35574273893E+02 -0.35920018233E+03  0.40046665894E+03  0.17200000000E+03 0.  1.
</event>
<event>
 4    1  0.5701701E+000  0.1905094E+03  0.7818608E-02  0.1158003E+00
         21   -1    0    0  501  502  0.00000000000E+00  0.00000000000E+00  0.34715077688E+03  0.34715077688E+03  0.00000000000E+00 0. -1.
         21   -1    0    0  502  503 -0.00000000000E+00 -0.00000000000E+00 -0.14968717212E+03  0.14968717212E+03  0.00000000000E+00 0. -1.
          6    1    1    2  501    0 -0.81798975876E+02 -0.43307236580E+01  0.23514944477E+03  0.30263689298E+03  0.17200000000E+03 0. -1.
         -6    1    1    2    0  503  0.81798975876E+02  0.43307236580E+01 -0.37685840011E+02  0.19420105602E+03  0.17200000000E+03 0. -1.
</event>
<event>
 4    1  0.5701701E+000  0.1774219E+03  0.7818608E-02  0.1170322E+00
         21   -1    0    0  503  502  0.00000000000E+00  0.00000000000E+00  0.89051152968E+02  0.89051152968E+02  0.00000000000E+00 0. -1.
         21   -1    0    0  501  503 -0.00000000000E+00 -0.00000000000E+00 -0.35551008406E+03  0.35551008406E+03  0.00000000000E+00 0. -1.
          6    1    1    2  501    0  0.10270479643E+01 -0.43514284221E+02 -0.11646713210E+03  0.21223369341E+03  0.17200000000E+03 0. -1.
         -6    1    1    2    0  502 -0.10270479643E+01  0.43514284221E+02 -0.14999179899E+03  0.23232754362E+03  0.17200000000E+03 0. -1.
</event>
<event>
 4    1  0.5701701E+000  0.2198648E+03  0.7818608E-02  0.1133984E+00
         21   -1    0    0  503  502  0.00000000000E+00  0.00000000000E+00  0.40846884021E+03  0.40846884021E+03  0.00000000000E+00 0. -1.
         21   -1    0    0  501  503 -0.00000000000E+00 -0.00000000000E+00 -0.12748853363E+03  0.12748853363E+03  0.00000000000E+00 0.  1.
          6    1    1    2  501    0 -0.13226740439E+03  0.35523028658E+02  0.68726609115E+02  0.23035602581E+03  0.17200000000E+03 0.  1.
         -6    1    1    2    0  502  0.13226740439E+03 -0.35523028658E+02  0.21225369747E+03  0.30560134803E+03  0.17200000000E+03 0. -1.
</event>
<event>
 4    1  0.5701701E+000  0.1747577E+03  0.7818608E-02  0.1172975E+00
         21   -1    0    0  503  502  0.00000000000E+00  0.00000000000E+00  0.22416056844E+02  0.22416056844E+02  0.00000000000E+00 0. -1.
         21   -1    0    0  501  503 -0.00000000000E+00 -0.00000000000E+00 -0.15434107469E+04  0.15434107469E+04  0.00000000000E+00 0. -1.
          6    1    1    2  501    0  0.30770486839E+02 -0.30681678244E+01 -0.10285949901E+04  0.10433349846E+04  0.17200000000E+03 0. -1.
         -6    1    1    2    0  502 -0.30770486839E+02  0.30681678244E+01 -0.49239969996E+03  0.52249181911E+03  0.17200000000E+03 0. -1.
</event>
<event>
 4    1  0.5701701E+000  0.3233881E+03  0.7818608E-02  0.1074100E+00
         21   -1    0    0  503  502  0.00000000000E+00  0.00000000000E+00  0.36145616207E+03  0.36145616207E+03  0.00000000000E+00 0.  1.
         21   -1    0    0  501  503 -0.00000000000E+00 -0.00000000000E+00 -0.29386768417E+03  0.29386768417E+03  0.00000000000E+00 0. -1.
          6    1    1    2  501    0 -0.25019621590E+03 -0.11134502718E+03 -0.69250577034E+01  0.32346223574E+03  0.17200000000E+03 0.  1.
         -6    1    1    2    0  502  0.25019621590E+03  0.11134502718E+03  0.74513535604E+02  0.33186161049E+03  0.17200000000E+03 0.  1.
</event>
<event>
 4    1  0.5701701E+000  0.1979206E+03  0.7818608E-02  0.1151505E+00
         21   -1    0    0  503  502  0.00000000000E+00  0.00000000000E+00  0.26985649939E+03  0.26985649939E+03  0.00000000000E+00 0. -1.
         21   -1    0    0  501  503 -0.00000000000E+00 -0.00000000000E+00 -0.14573399240E+03  0.14573399240E+03  0.00000000000E+00 0. -1.
          6    1    1    2  501    0 -0.74676931447E+02 -0.63339804891E+02  0.75093519429E+02  0.21168753302E+03  0.17200000000E+03 0. -1.
         -6    1    1    2    0  502  0.74676931447E+02  0.63339804891E+02  0.49028987558E+02  0.20390295877E+03  0.17200000000E+03 0. -1.
</event>
<event>
 4    1  0.5701701E+000  0.1861229E+03  0.7818608E-02  0.1162005E+00
         21   -1    0    0  501  502  0.00000000000E+00  0.00000000000E+00  0.26702532758E+03  0.26702532758E+03  0.00000000000E+00 0.  1.
         21   -1    0    0  502  503 -0.00000000000E+00 -0.00000000000E+00 -0.14205433776E+03  0.14205433776E+03  0.00000000000E+00 0.  1.
          6    1    1    2  501    0  0.51553643488E+02  0.48989524194E+02  0.12272699246E+03  0.22294319078E+03  0.17200000000E+03 0. -1.
         -6    1    1    2    0  503 -0.51553643488E+02 -0.48989524194E+02  0.22439973597E+01  0.18613647456E+03  0.17200000000E+03 0. -1.
</event>
<event>
 4    1  0.5701701E+000  0.2429578E+03  0.7818608E-02  0.1117838E+00
         21   -1    0    0  501  502  0.00000000000E+00  0.00000000000E+00  0.12403318315E+03  0.12403318315E+03  0.00000000000E+00 0. -1.
         21   -1    0    0  502  503 -0.00000000000E+00 -0.00000000000E+00 -0.47629088356E+03  0.47629088356E+03  0.00000000000E+00 0.  1.
          6    1    1    2  501    0 -0.40604071662E+02  0.16672067161E+03 -0.16762635594E+03  0.29517294622E+03  0.17200000000E+03 0. -1.
         -6    1    1    2    0  503  0.40604071662E+02 -0.16672067161E+03 -0.18463134447E+03  0.30515112049E+03  0.17200000000E+03 0.  1.
</event>
<event>
 4    1  0.5701701E+000  0.1900538E+03  0.7818608E-02  0.1158413E+00
         21   -1    0    0  503  502  0.00000000000E+00  0.00000000000E+00  0.10795508748E+04  0.10795508748E+04  0.00000000000E+00 0.  1.
         21   -1    0    0  501  503 -0.00000000000E+00 -0.00000000000E+00 -0.40102756855E+02  0.40102756855E+02  0.00000000000E+00 0. -1.
          6    1    1    2  501    0  0.27035862176E+02 -0.76193813964E+02  0.29185715768E+03  0.34828298210E+03  0.17200000000E+03 0. -1.
         -6    1    1    2    0  502 -0.27035862176E+02  0.76193813964E+02  0.74759096031E+03  0.77137064960E+03  0.17200000000E+03 0.  1.
</event>
<event>
 4    1  0.5701701E+000  0.2061022E+03  0.7818608E-02  0.1144690E+00
         21   -1    0    0  501  502  0.00000000000E+00  0.00000000000E+00  0.10944124486E+04  0.10944124486E+04  0.00000000000E+00 0.  1.
         21   -1    0    0  502  503 -0.00000000000E+00 -0.00000000000E+00 -0.39426025964E+02  0.39426025964E+02  0.00000000000E+00 0. -1.
          6    1    1    2  501    0  0.83711947314E+02 -0.76723115604E+02  0.59814833594E+03  0.63266069767E+03  0.17200000000E+03 0.  1.
         -6    1    1    2    0  503 -0.83711947314E+02  0.76723115604E+02  0.45683808667E+03  0.50117777686E+03  0.17200000000E+03 0. -1.
</event>
<event>
 4    1  0.5701701E+000  0.1875746E+03  0.7818608E-02  0.1160667E+00
         21   -1    0    0  503  502  0.00000000000E+00  0.00000000000E+00  0.60262830451E+03  0.60262830451E+03  0.00000000000E+00 0. -1.
         21   -1    0    0  501  503 -0.00000000000E+00 -0.00000000000E+00 -0.10408596279E+03  0.10408596279E+03  0.00000000000E+00 0. -1.
          6    1    1    2  501    0  0.64304444395E+02 -0.38277518165E+02  0.15127609805E+02  0.18818361922E+03  0.17200000000E+03 0. -1.
         -6    1    1    2    0  502 -0.64304444395E+02  0.38277518165E+02  0.48341473191E+03  0.51853064807E+03  0.17200000000E+03 0. -1.
</event>
<event>
 4    1  0.5701701E+000  0.2404524E+03  0.7818608E-02  0.1119492E+00
         21   -1    0    0  503  502  0.00000000000E+00  0.00000000000E+00  0.18324095692E+03  0.18324095692E+03  0.00000000000E+00 0.  1.
         21   -1    0    0  501  503 -0.00000000000E+00 -0.00000000000E+00 -0.31817067115E+03  0.31817067115E+03  0.00000000000E+00 0. -1.
          6    1    1    2  501    0 -0.14757184350E+03  0.80348650866E+02 -0.90320290949E+02  0.25685620422E+03  0.17200000000E+03 0. -1.
         -6    1    1    2    0  502  0.14757184350E+03 -0.80348650866E+02 -0.44609423275E+02  0.24455542385E+03  0.17200000000E+03 0.  1.
</event>
<event>
 4    1  0.5701701E+000  0.3112871E+03  0.7818608E-02  0.1079731E+00
         21   -1    0    0  501  502  0.00000000000E+00  0.00000000000E+00  0.61333647801E+02  0.61333647801E+02  0.00000000000E+00 0. -1.
         21   -1    0    0  502  503 -0.00000000000E+00 -0.00000000000E+00 -0.17630462134E+04  0.17630462134E+04  0.00000000000E+00 0.  1.
          6    1    1    2  501    0 -0.12413616734E+03  0.22782856796E+03 -0.55683471842E+03  0.63793773055E+03  0.17200000000E+03 0. -1.
         -6    1    1    2    0  503  0.12413616734E+03 -0.22782856796E+03 -0.11448778472E+04  0.11864421307E+04  0.17200000000E+03 0.  1.
</event>
<event>
 4    1  0.5701701E+000  0.1746524E+03  0.7818608E-02  0.1173081E+00
         21   -1    0    0  503  502  0.00000000000E+00  0.00000000000E+00  0.89742090519E+02  0.89742090519E+02  0.00000000000E+00 0.  1.
         21   -1    0    0  501  503 -0.00000000000E+00 -0.00000000000E+00 -0.41133177772E+03  0.41133177772E+03  0.00000000000E+00 0.  1.
          6    1    1    2  501    0 -0.27349700525E+02 -0.13093582295E+02 -0.26519895018E+03  0.31754358943E+03  0.17200000000E+03 0.  1.
         -6    1    1    2    0  502  0.27349700525E+02  0.13093582295E+02 -0.56390737025E+02  0.18353027881E+03  0.17200000000E+03 0.  1.
</event>
<event>
 4    1  0.5701701E+000  0.1817961E+03  0.7818608E-02  0.1166076E+00
         21   -1    0    0  501  502  0.00000000000E+00  0.00000000000E+00  0.40711814072E+03  0.40711814072E+03  0.00000000000E+00 0.  1.
         21   -1    0    0  502  503 -0.00000000000E+00 -0.00000000000E+00 -0.11393945803E+03  0.11393945803E+03  0.00000000000E+00 0.  1.
          6    1    1    2  501    0 -0.57881117432E+02 -0.10751328426E+02  0.28628650906E+03  0.33913091880E+03  0.17200000000E+03 0.  1.
         -6    1    1    2    0  503  0.57881117432E+02  0.10751328426E+02  0.68921736306E+01  0.18192667994E+03  0.17200000000E+03 0.  1.
</event>
<event>
 4    1  0.5701701E+000  0.2514161E+03  0.7818608E-02  0.1112413E+00
         21   -1    0    0  503  502  0.00000000000E+00  0.00000000000E+00  0.46088503956E+03  0.46088503956E+03  0.00000000000E+00 0.  1.
         21   -1    0    0  501  503 -0.00000000000E+00 -0.00000000000E+00 -0.14429940303E+03  0.14429940303E+03  0.00000000000E+00 0. -1.
          6    1    1    2  501    0  0.93691120598E+02 -0.15763253506E+03  0.90935800200E+02  0.26735624538E+03  0.17200000000E+03 0. -1.
         -6    1    1    2    0  502 -0.93691120598E+02  0.15763253506E+03  0.22564983633E+03  0.33782819720E+03  0.17200000000E+03 0.  1.
</event>
<event>
 4    1  0.5701701E+000  0.2379669E+03  0.7818608E-02  0.1121155E+00
         21   -1    0    0  501  502  0.00000000000E+00  0.00000000000E+00  0.25299112585E+03  0.25299112585E+03  0.00000000000E+00 0.  1.
         21   -1    0    0  502  503 -0.00000000000E+00 -0.00000000000E+00 -0.10360784319E+04  0.10360784319E+04  0.00000000000E+00 0.  1.
          6    1    1    2  501    0  0.16311565377E+03  0.20917078282E+02  0.17913703193E+03  0.29785620168E+03  0.17200000000E+03 0.  1.
         -6    1    1    2    0  503 -0.16311565377E+03 -0.20917078282E+02 -0.96222433793E+03  0.99121335603E+03  0.17200000000E+03 0.  1.
</event>
<event>
 4    1  0.5701701E+000  0.2418658E+03  0.7818608E-02  0.1118556E+00
         21   -1    0    0  503  502  0.00000000000E+00  0.00000000000E+00  0.11072878158E+04  0.11072878158E+04  0.00000000000E+00 0. -1.
         21   -1    0    0  501  503 -0.00000000000E+00 -0.00000000000E+00 -0.65598216639E+02  0.65598216639E+02  0.00000000000E+00 0.  1.
          6    1    1    2  501    0 -0.15629381243E+03  0.66987518762E+02  0.77956391473E+03  0.81622238429E+03  0.17200000000E+03 0. -1.
         -6    1    1    2    0  502  0.15629381243E+03 -0.66987518762E+02  0.26212568446E+03  0.35666364817E+03  0.17200000000E+03 0.  1.
</event>
<event>
 4    1  0.5701701E+000  0.2653546E+03  0.7818608E-02  0.1103968E+00
         21   -1    0    0  503  502  0.00000000000E+00  0.00000000000E+00  0.56760797271E+03  0.56760797271E+03  0.00000000000E+00 0. -1.
         21   -1    0    0  501  503 -0.00000000000E+00 -0.00000000000E+00 -0.12778692668E+03  0.12778692668E+03  0.00000000000E+00 0.  1.
          6    1    1    2  501    0 -0.19792661457E+03  0.40670829006E+02  0.16046991191E+03  0.31010265028E+03  0.17200000000E+03 0. -1.
         -6    1    1    2    0  502  0.19792661457E+03 -0.40670829006E+02  0.27935113412E+03  0.38529224910E+03  0.17200000000E+03 0. -1.
</event>
<event>
 4    1  0.5701701E+000  0.1947312E+03  0.7818608E-02  0.1154262E+00
         21   -1    0    0  501  502  0.00000000000E+00  0.00000000000E+00  0.47607443167E+03  0.47607443167E+03  0.00000000000E+00 0. -1.
         21   -1    0    0  502  503 -0.00000000000E+00 -0.00000000000E+00 -0.26485337496E+03  0.26485337496E+03  0.00000000000E+00 0. -1.
          6    1    1    2  501    0 -0.27665983366E+02 -0.87010607749E+02  0.41539904502E+03  0.45877730883E+03  0.17200000000E+03 0. -1.
         -6    1    1    2    0  503  0.27665983366E+02  0.87010607749E+02 -0.20417798831E+03  0.28215049780E+03  0.17200000000E+03 0. -1.
</event>
<event>
 4    1  0.5701701E+000  0.2666223E+03  0.7818608E-02  0.1103228E+00
         21   -1    0    0  503  502  0.00000000000E+00  0.00000000000E+00  0.18165783155E+03  0.18165783155E+03  0.00000000000E+00 0.  1.
         21   -1    0    0  501  503 -0.00000000000E+00 -0.00000000000E+00 -0.75903834926E+03  0.75903834926E+03  0.00000000000E+00 0.  1.
          6    1    1    2  501    0 -0.12177800657E+03 -0.16332048091E+03 -0.61606226276E+03  0.67128248448E+03  0.17200000000E+03 0.  1.
         -6    1    1    2    0  502  0.12177800657E+03  0.16332048091E+03  0.38681745048E+02  0.26941369633E+03  0.17200000000E+03 0.  1.
</event>
<event>
 4    1  0.5701701E+000  0.1817929E+03  0.7818608E-02  0.1166079E+00
         21   -1    0    0  501  502  0.00000000000E+00  0.00000000000E+00  0.11602615198E+03  0.11602615198E+03  0.00000000000E+00 0. -1.
         21   -1    0    0  502  503 -0.00000000000E+00 -0.00000000000E+00 -0.28508946908E+03  0.28508946908E+03  0.00000000000E+00 0. -1.
          6    1    1    2  501    0  0.58387942506E+02 -0.74504196806E+01 -0.78575514605E+02  0.19804739857E+03  0.17200000000E+03 0. -1.
         -6    1    1    2    0  503 -0.58387942506E+02  0.74504196806E+01 -0.90487802492E+02  0.20306822249E+03  0.17200000000E+03 0. -1.
</event>
<event>
 4    1  0.5701701E+000  0.1837390E+03  0.7818608E-02  0.1164233E+00
         21   -1    0    0  501  502  0.00000000000E+00  0.00000000000E+00  0.81469533255E+02  0.81469533255E+02  0.00000000000E+00 0.  1.
         21   -1    0    0  502  503 -0.00000000000E+00 -0.00000000000E+00 -0.10678158494E+04  0.10678158494E+04  0.00000000000E+00 0.  1.
          6    1    1    2  501    0 -0.13652756219E+02  0.63163409651E+02 -0.43653740478E+02  0.18885354942E+03  0.17200000000E+03 0.  1.
         -6    1    1    2    0  503  0.13652756219E+02 -0.63163409651E+02 -0.94269257565E+03  0.96043183322E+03  0.17200000000E+03 0.  1.
</event>
<event>
 4    1  0.5701701E+000  0.2523403E+03  0.7818608E-02  0.1111835E+00
         21   -1    0    0  503  502  0.00000000000E+00  0.00000000000E+00  0.75394093466E+03  0.75394093466E+03  0.00000000000E+00 0.  1.
         21   -1    0    0  501  503 -0.00000000000E+00 -0.00000000000E+00 -0.13912386723E+03  0.13912386723E+03  0.00000000000E+00 0.  1.
          6    1    1    2  501    0  0.96815173412E+02 -0.15722107896E+03  0.27501407602E+02  0.25383453841E+03  0.17200000000E+03 0.  1.
         -6    1    1    2    0  502 -0.96815173412E+02  0.15722107896E+03  0.58731565983E+03  0.63923026348E+03  0.17200000000E+03 0.  1.
</event>
<event>
 4    1  0.5701701E+000  0.1869817E+03  0.7818608E-02  0.1161212E+00
         21   -1    0    0  501  502  0.00000000000E+00  0.00000000000E+00  0.43414059776E+03  0.43414059776E+03  0.00000000000E+00 0. -1.
         21   -1    0    0  502  503 -0.00000000000E+00 -0.00000000000E+00 -0.11333117482E+03  0.11333117482E+03  0.00000000000E+00 0. -1.
          6    1    1    2  501    0 -0.57005989932E+02  0.46135530836E+02  0.30766617686E+03  0.36002867452E+03  0.17200000000E+03 0. -1.
         -6    1    1    2    0  503  0.57005989932E+02 -0.46135530836E+02  0.13143246085E+02  0.18744309806E+03  0.17200000000E+03 0. -1.
</event>
<event>
 4    1  0.5701701E+000  0.1747487E+03  0.7818608E-02  0.1172984E+00
         21   -1    0    0  503  502  0.00000000000E+00  0.00000000000E+00  0.19974660400E+03  0.19974660400E+03  0.00000000000E+00 0. -1.
         21   -1    0    0  501  503 -0.00000000000E+00 -0.00000000000E+00 -0.44238223719E+03  0.44238223719E+03  0.00000000000E+00 0. -1.
          6    1    1    2  501    0 -0.27198085329E+02  0.14607043296E+02  0.13841085892E+03  0.22292300784E+03  0.17200000000E+03 0. -1.
         -6    1    1    2    0  502  0.27198085329E+02 -0.14607043296E+02 -0.38104649211E+03  0.41920583334E+03  0.17200000000E+03 0. -1.
</event>
<event>
 4    1  0.5701701E+000  0.2247638E+03  0.7818608E-02  0.1130380E+00
         21   -1    0    0  501  502  0.00000000000E+00  0.00000000000E+00  0.10418314149E+04  0.10418314149E+04  0.00000000000E+00 0. -1.
         21   -1    0    0  502  503 -0.00000000000E+00 -0.00000000000E+00 -0.97174018127E+02  0.97174018127E+02  0.00000000000E+00 0. -1.
          6    1    1    2  501    0  0.14142272500E+03 -0.30567846442E+02  0.87542825587E+03  0.90382155958E+03  0.17200000000E+03 0. -1.
         -6    1    1    2    0  503 -0.14142272500E+03  0.30567846442E+02  0.69229140912E+02  0.23518387346E+03  0.17200000000E+03 0. -1.
</event>
<event>
 4    1  0.5701701E+000  0.2273775E+03  0.7818608E-02  0.1128499E+00
         21   -1    0    0  501  502  0.00000000000E+00  0.00000000000E+00  0.28852628900E+03  0.28852628900E+03  0.00000000000E+00 0.  1.
         21   -1    0    0  502  503 -0.00000000000E+00 -0.00000000000E+00 -0.18248336529E+03  0.18248336529E+03  0.00000000000E+00 0.  1.
          6    1    1    2  501    0  0.11347671670E+03 -0.96122594624E+02  0.84667840621E+02  0.24262968010E+03  0.17200000000E+03 0.  1.
         -6    1    1    2    0  503 -0.11347671670E+03  0.96122594624E+02  0.21375083092E+02  0.22837997418E+03  0.17200000000E+03 0.  1.
</event>
<event>
 4    1  0.5701701E+000  0.2268342E+03  0.7818608E-02  0.1128888E+00
         21   -1    0    0  503  502  0.00000000000E+00  0.00000000000E+00  0.36639215172E+03  0.36639215172E+03  0.00000000000E+00 0.  1.
         21   -1    0    0  501  503 -0.00000000000E+00 -0.00000000000E+00 -0.14486435048E+03  0.14486435048E+03  0.00000000000E+00 0. -1.
          6    1    1    2  501    0 -0.13989434406E+03 -0.47951340758E+02  0.15547013712E+03  0.27499949476E+03  0.17200000000E+03 0. -1.
         -6    1    1    2    0  502  0.13989434406E+03  0.47951340758E+02  0.66057664113E+02  0.23625700745E+03  0.17200000000E+03 0. -1.
</event>
<event>
 4    1  0.5701701E+000  0.3504733E+03  0.7818608E-02  0.1062421E+00
         21   -1    0    0  501  502  0.00000000000E+00  0.00000000000E+00  0.21743547339E+03  0.21743547339E+03  0.00000000000E+00 0. -1.
         21   -1    0    0  502  503 -0.00000000000E+00 -0.00000000000E+00 -0.66483849419E+03  0.66483849419E+03  0.00000000000E+00 0.  1.
          6    1    1    2  501    0  0.25266386403E+03 -0.17148903677E+03 -0.52676503660E+02  0.35440983615E+03  0.17200000000E+03 0. -1.
         -6    1    1    2    0  503 -0.25266386403E+03  0.17148903677E+03 -0.39472651714E+03  0.52786413143E+03  0.17200000000E+03 0.  1.
</event>
<event>
 4    1  0.5701701E+000  0.1928473E+03  0.7818608E-02  0.1155918E+00
         21   -1    0    0  503  502  0.00000000000E+00  0.00000000000E+00  0.26420350004E+03  0.26420350004E+03  0.00000000000E+00 0. -1.
         21   -1    0    0  501  503 -0.00000000000E+00 -0.00000000000E+00 -0.15279362887E+03  0.15279362887E+03  0.00000000000E+00 0. -1.
          6    1    1    2  501    0  0.86459434800E+02  0.11438824790E+02 -0.28002532529E+01  0.19286762817E+03  0.17200000000E+03 0. -1.
         -6    1    1    2    0  502 -0.86459434800E+02 -0.11438824790E+02  0.11421012442E+03  0.22412950073E+03  0.17200000000E+03 0. -1.
</event>
<event>
 4    1  0.5701701E+000  0.1944643E+03  0.7818608E-02  0.1154495E+00
         21   -1    0    0  501  502  0.00000000000E+00  0.00000000000E+00  0.24049602798E+04  0.24049602798E+04  0.00000000000E+00 0.  1.
         21   -1    0    0  502  503 -0.00000000000E+00 -0.00000000000E+00 -0.19144630469E+02  0.19144630469E+02  0.00000000000E+00 0.  1.
          6    1    1    2  501    0 -0.18521673183E+02 -0.88821787111E+02  0.17052153790E+04  0.17162680009E+04  0.17200000000E+03 0.  1.
         -6    1    1    2    0  503  0.18521673183E+02  0.88821787111E+02  0.68060027031E+03  0.70783690931E+03  0.17200000000E+03 0.  1.
</event>
<event>
 4    1  0.5701701E+000  0.1942447E+03  0.7818608E-02  0.1154688E+00
         21   -1    0    0  501  502  0.00000000000E+00  0.00000000000E+00  0.37957746880E+02  0.37957746880E+02  0.00000000000E+00 0.  1.
         21   -1    0    0  502  503 -0.00000000000E+00 -0.00000000000E+00 -0.12843962910E+04  0.12843962910E+04  0.00000000000E+00 0. -1.
          6    1    1    2  501    0  0.52647570967E+02  0.73316042123E+02 -0.30884724475E+03  0.36485288727E+03  0.17200000000E+03 0.  1.
         -6    1    1    2    0  503 -0.52647570967E+02 -0.73316042123E+02 -0.93759129940E+03  0.95750115064E+03  0.17200000000E+03 0. -1.
</event>
<event>
 4    1  0.5701701E+000  0.1740829E+03  0.7818608E-02  0.1173656E+00
         21   -1    0    0  503  502  0.00000000000E+00  0.00000000000E+00  0.38741335656E+03  0.38741335656E+03  0.00000000000E+00 0. -1.
         21   -1    0    0  501  503 -0.00000000000E+00 -0.00000000000E+00 -0.32440240677E+03  0.32440240677E+03  0.00000000000E+00 0. -1.
          6    1    1    2  501    0  0.26658180539E+02  0.31909888749E+01 -0.27853683456E+03  0.32846249285E+03  0.17200000000E+03 0. -1.
         -6    1    1    2    0  502 -0.26658180539E+02 -0.31909888749E+01  0.34154778435E+03  0.38335327049E+03  0.17200000000E+03 0. -1.
</event>
<event>
 4    1  0.5701701E+000  0.1919406E+03  0.7818608E-02  0.1156723E+00
         21   -1    0    0  501  502  0.00000000000E+00  0.00000000000E+00  0.87864987797E+02  0.87864987797E+02  0.00000000000E+00 0.  1.
         21   -1    0    0  502  503 -0.00000000000E+00 -0.00000000000E+00 -0.57065204833E+03  0.57065204833E+03  0.00000000000E+00 0.  1.
          6    1    1    2  501    0  0.33348429276E+02 -0.78390572180E+02 -0.71821151908E+02  0.20493774031E+03  0.17200000000E+03 0.  1.
         -6    1    1    2    0  503 -0.33348429276E+02  0.78390572180E+02 -0.41096590862E+03  0.45357929582E+03  0.17200000000E+03 0.  1.
</event>
<event>
 4    1  0.5701701E+000  0.1814588E+03  0.7818608E-02  0.1166399E+00
         21   -1    0    0  503  502  0.00000000000E+00  0.00000000000E+00  0.20590294631E+03  0.20590294631E+03  0.00000000000E+00 0.  1.
         21   -1    0    0  501  503 -0.00000000000E+00 -0.00000000000E+00 -0.34639274974E+03  0.34639274974E+03  0.00000000000E+00 0.  1.
          6    1    1    2  501    0 -0.57295694256E+02 -0.77790714867E+01 -0.27285862095E+03  0.32768756088E+03  0.17200000000E+03 0.  1.
         -6    1    1    2    0  502  0.57295694256E+02  0.77790714867E+01  0.13236881751E+03  0.22460813517E+03  0.17200000000E+03 0.  1.
</event>
<event>
 4    1  0.5701701E+000  0.2067974E+03  0.7818608E-02  0.1144128E+00
         21   -1    0    0  503  502  0.00000000000E+00  0.00000000000E+00  0.13257034656E+04  0.13257034656E+04  0.00000000000E+00 0. -1.
         21   -1    0    0  501  503 -0.00000000000E+00 -0.00000000000E+00 -0.48840383871E+02  0.48840383871E+02  0.00000000000E+00 0. -1.
          6    1    1    2  501    0  0.93966125733E+02 -0.65966008634E+02  0.23797390599E+03  0.31527246473E+03  0.17200000000E+03 0. -1.
         -6    1    1    2    0  502 -0.93966125733E+02  0.65966008634E+02  0.10388891758E+04  0.10592713848E+04  0.17200000000E+03 0. -1.
</event>
<event>
 4    1  0.5701701E+000  0.2075494E+03  0.7818608E-02  0.1143521E+00
         21   -1    0    0  503  502  0.00000000000E+00  0.00000000000E+00  0.16537736002E+03  0.16537736002E+03  0.00000000000E+00 0. -1.
         21   -1    0    0  501  503 -0.00000000000E+00 -0.00000000000E+00 -0.60441244668E+03  0.60441244668E+03  0.00000000000E+00 0. -1.
          6    1    1    2  501    0 -0.42307963750E+02  0.10817944632E+03 -0.50986287934E+03  0.55048788555E+03  0.17200000000E+03 0. -1.
         -6    1    1    2    0  502  0.42307963750E+02 -0.10817944632E+03  0.70827792690E+02  0.21930192115E+03  0.17200000000E+03 0. -1.
</event>
<event>
 4    1  0.5701701E+000  0.1765193E+03  0.7818608E-02  0.1171215E+00
         21   -1    0    0  501  502  0.00000000000E+00  0.00000000000E+00  0.50804807484E+02  0.50804807484E+02  0.00000000000E+00 0.  1.
         21   -1    0    0  502  503 -0.00000000000E+00 -0.00000000000E+00 -0.62549702158E+03  0.62549702158E+03  0.00000000000E+00 0.  1.
          6    1    1    2  501    0 -0.37335916895E+02 -0.13457436251E+02 -0.24014470826E+03  0.29804119545E+03  0.17200000000E+03 0. -1.
         -6    1    1    2    0  503  0.37335916895E+02  0.13457436251E+02 -0.33454750584E+03  0.37826063362E+03  0.17200000000E+03 0. -1.
</event>
<event>
 4    1  0.5701701E+000  0.2611441E+03  0.7818608E-02  0.1106458E+00
         21   -1    0    0  501  502  0.00000000000E+00  0.00000000000E+00  0.88631344565E+03  0.88631344565E+03  0.00000000000E+00 0.  1.
         21   -1    0    0  502  503 -0.00000000000E+00 -0.00000000000E+00 -0.14749555533E+03  0.14749555533E+03  0.00000000000E+00 0. -1.
          6    1    1    2  501    0  0.32301356383E+02  0.19382687149E+03  0.72690814465E+03  0.77239347776E+03  0.17200000000E+03 0.  1.
         -6    1    1    2    0  503 -0.32301356383E+02 -0.19382687149E+03  0.11909745674E+02  0.26141552322E+03  0.17200000000E+03 0. -1.
</event>
<event>
 4    1  0.5701701E+000  0.1837113E+03  0.7818608E-02  0.1164259E+00
         21   -1    0    0  501  502  0.00000000000E+00  0.00000000000E+00  0.86036790187E+02  0.86036790187E+02  0.00000000000E+00 0. -1.
         21   -1    0    0  502  503 -0.00000000000E+00 -0.00000000000E+00 -0.45283770564E+03  0.45283770564E+03  0.00000000000E+00 0. -1.
          6    1    1    2  501    0 -0.56653404011E+02  0.30923273578E+02 -0.84863682013E+02  0.20236526767E+03  0.17200000000E+03 0. -1.
         -6    1    1    2    0  503  0.56653404011E+02 -0.30923273578E+02 -0.28193723344E+03  0.33650922816E+03  0.17200000000E+03 0. -1.
</event>
<event>
 4    1  0.5701701E+000  0.2132643E+03  0.7818608E-02  0.1139007E+00
         21   -1    0    0  503  502  0.00000000000E+00  0.00000000000E+00  0.23521189102E+04  0.23521189102E+04  0.00000000000E+00 0. -1.
         21   -1    0    0  501  503 -0.00000000000E+00 -0.00000000000E+00 -0.11887817905E+03  0.11887817905E+03  0.00000000000E+00 0. -1.
          6    1    1    2  501    0  0.88073965132E+02  0.90225473091E+02 -0.13939928614E+02  0.21371939767E+03  0.17200000000E+03 0. -1.
         -6    1    1    2    0  502 -0.88073965132E+02 -0.90225473091E+02  0.22471806598E+04  0.22572776916E+04  0.17200000000E+03 0. -1.
</event>
<event>
 4    1  0.5701701E+000  0.1994192E+03  0.7818608E-02  0.1150230E+00
         21   -1    0    0  501  502  0.00000000000E+00  0.00000000000E+00  0.14909481012E+03  0.14909481012E+03  0.00000000000E+00 0.  1.
         21   -1    0    0  502  503 -0.00000000000E+00 -0.00000000000E+00 -0.26816909760E+03  0.26816909760E+03  0.00000000000E+00 0.  1.
          6    1    1    2  501    0  0.72204004613E+02 -0.70502511195E+02 -0.44252393173E+02  0.20427015609E+03  0.17200000000E+03 0.  1.
         -6    1    1    2    0  503 -0.72204004613E+02  0.70502511195E+02 -0.74821894302E+02  0.21299375163E+03  0.17200000000E+03 0.  1.
</event>
<event>
 4    1  0.5701701E+000  0.2147530E+03  0.7818608E-02  0.1137856E+00
         21   -1    0    0  503  502  0.00000000000E+00  0.00000000000E+00  0.46398935903E+03  0.46398935903E+03  0.00000000000E+00 0.  1.
         21   -1    0    0  501  503 -0.00000000000E+00 -0.00000000000E+00 -0.17466220425E+03  0.17466220425E+03  0.00000000000E+00 0. -1.
          6    1    1    2  501    0  0.11887592777E+03  0.49024003353E+02 -0.64956835919E+02  0.22436182750E+03  0.17200000000E+03 0. -1.
         -6    1    1    2    0  502 -0.11887592777E+03 -0.49024003353E+02  0.35428399069E+03  0.41428973577E+03  0.17200000000E+03 0.  1.
</event>
<event>
 4    1  0.5701701E+000  0.2763402E+03  0.7818608E-02  0.1097705E+00
         21   -1    0    0  503  502  0.00000000000E+00  0.00000000000E+00  0.88134401425E+03  0.88134401425E+03  0.00000000000E+00 0. -1.
         21   -1    0    0  501  503 -0.00000000000E+00 -0.00000000000E+00 -0.25451751197E+03  0.25451751197E+03  0.00000000000E+00 0.  1.
          6    1    1    2  501    0  0.19501549352E+03 -0.93535464063E+02 -0.14782629824E+03  0.31339518216E+03  0.17200000000E+03 0.  1.
         -6    1    1    2    0  502 -0.19501549352E+03  0.93535464063E+02  0.77465280052E+03  0.82246634406E+03  0.17200000000E+03 0. -1.
</event>
<event>
 4    1  0.5701701E+000  0.4159250E+03  0.7818608E-02  0.1038401E+00
         21   -1    0    0  503  502  0.00000000000E+00  0.00000000000E+00  0.19447350310E+03  0.19447350310E+03  0.00000000000E+00 0. -1.
         21   -1    0    0  501  503 -0.00000000000E+00 -0.00000000000E+00 -0.90387967884E+03  0.90387967884E+03  0.00000000000E+00 0.  1.
          6    1    1    2  501    0  0.17373820807E+02 -0.37829588015E+03 -0.42385384095E+03  0.59383979412E+03  0.17200000000E+03 0.  1.
         -6    1    1    2    0  502 -0.17373820807E+02  0.37829588015E+03 -0.28555233479E+03  0.50451338782E+03  0.17200000000E+03 0.  1.
</event>
<event>
 4    1  0.5701701E+000  0.1987618E+03  0.7818608E-02  0.1150788E+00
         21   -1    0    0  503  502  0.00000000000E+00  0.00000000000E+00  0.19317514977E+03  0.19317514977E+03  0.00000000000E+00 0. -1.
         21   -1    0    0  501  503 -0.00000000000E+00 -0.00000000000E+00 -0.27552354404E+03  0.27552354404E+03  0.00000000000E+00 0. -1.
          6    1    1    2  501    0 -0.47089952892E+02  0.87776844095E+02 -0.16014904848E+03  0.25525272918E+03  0.17200000000E+03 0. -1.
         -6    1    1    2    0  502  0.47089952892E+02 -0.87776844095E+02  0.77800654212E+02  0.21344596463E+03  0.17200000000E+03 0. -1.
</event>
<event>
 4    1  0.5701701E+000  0.1762804E+03  0.7818608E-02  0.1171452E+00
         21   -1    0    0  503  502  0.00000000000E+00  0.00000000000E+00  0.10941908662E+03  0.10941908662E+03  0.00000000000E+00 0.  1.
         21   -1    0    0  501  503 -0.00000000000E+00 -0.00000000000E+00 -0.28932568336E+03  0.28932568336E+03  0.00000000000E+00 0.  1.
          6    1    1    2  501    0  0.37073194657E+02 -0.10786291074E+02 -0.62897889923E+02  0.18716546261E+03  0.17200000000E+03 0.  1.
         -6    1    1    2    0  502 -0.37073194657E+02  0.10786291074E+02 -0.11700870681E+03  0.21157930737E+03  0.17200000000E+03 0.  1.
</event>
<event>
 4    1  0.5701701E+000  0.1742689E+03  0.7818608E-02  0.1173468E+00
         21   -1    0    0  501  502  0.00000000000E+00  0.00000000000E+00  0.32315363495E+02  0.32315363495E+02  0.00000000000E+00 0. -1.
         21   -1    0    0  502  503 -0.00000000000E+00 -0.00000000000E+00 -0.95896669361E+03  0.95896669361E+03  0.00000000000E+00 0. -1.
          6    1    1    2  501    0 -0.19422329601E+01 -0.27961927801E+02 -0.39323548392E+03  0.43012066620E+03  0.17200000000E+03 0.  1.
         -6    1    1    2    0  503  0.19422329601E+01  0.27961927801E+02 -0.53341584619E+03  0.56116139091E+03  0.17200000000E+03 0.  1.
</event>
<event>
 4    1  0.5701701E+000  0.1732081E+03  0.7818608E-02  0.1174543E+00
         21   -1    0    0  501  502  0.00000000000E+00  0.00000000000E+00  0.62927328973E+03  0.62927328973E+03  0.00000000000E+00 0.  1.
         21   -1    0    0  502  503 -0.00000000000E+00 -0.00000000000E+00 -0.75959532672E+02  0.75959532672E+02  0.00000000000E+00 0.  1.
          6    1    1    2  501    0 -0.17377902971E+02  0.10726846200E+02  0.49182620490E+03  0.52143462923E+03  0.17200000000E+03 0.  1.
         -6    1    1    2    0  503  0.17377902971E+02 -0.10726846200E+02  0.61487552161E+02  0.18379819317E+03  0.17200000000E+03 0.  1.
</event>
<event>
 4    1  0.5701701E+000  0.2081509E+03  0.7818608E-02  0.1143039E+00
         21   -1    0    0  503  502  0.00000000000E+00  0.00000000000E+00  0.12348810235E+03  0.12348810235E+03  0.00000000000E+00 0. -1.
         21   -1    0    0  501  503 -0.00000000000E+00 -0.00000000000E+00 -0.39083430373E+03  0.39083430373E+03  0.00000000000E+00 0.  1.
          6    1    1    2  501    0  0.11696637597E+03  0.78514753551E+01 -0.21591835775E+03  0.29991251389E+03  0.17200000000E+03 0.  1.
         -6    1    1    2    0  502 -0.11696637597E+03 -0.78514753551E+01 -0.51427843626E+02  0.21440989220E+03  0.17200000000E+03 0. -1.
</event>
<event>
 4    1  0.5701701E+000  0.1764421E+03  0.7818608E-02  0.1171291E+00
         21   -1    0    0  501  502  0.00000000000E+00  0.00000000000E+00  0.12248663960E+04  0.12248663960E+04  0.00000000000E+00 0. -1.
         21   -1    0    0  502  503 -0.00000000000E+00 -0.00000000000E+00 -0.37063147791E+02  0.37063147791E+02  0.00000000000E+00 0. -1.
          6    1    1    2  501    0 -0.28340352847E+02  0.27288106346E+02  0.94760111839E+03  0.96388780256E+03  0.17200000000E+03 0. -1.
         -6    1    1    2    0  503  0.28340352847E+02 -0.27288106346E+02  0.24020212982E+03  0.29804174124E+03  0.17200000000E+03 0. -1.
</event>
<event>
 4    1  0.5701701E+000  0.2004214E+03  0.7818608E-02  0.1149384E+00
         21   -1    0    0  501  502  0.00000000000E+00  0.00000000000E+00  0.52125893601E+03  0.52125893601E+03  0.00000000000E+00 0. -1.
         21   -1    0    0  502  503 -0.00000000000E+00 -0.00000000000E+00 -0.77863987077E+02  0.77863987077E+02  0.00000000000E+00 0. -1.
          6    1    1    2  501    0  0.10013037258E+03  0.23635759083E+02  0.25211815425E+03  0.32207499798E+03  0.17200000000E+03 0. -1.
         -6    1    1    2    0  503 -0.10013037258E+03 -0.23635759083E+02  0.19127679468E+03  0.27704792510E+03  0.17200000000E+03 0. -1.
</event>
<event>
 4    1  0.5701701E+000  0.1831892E+03  0.7818608E-02  0.1164752E+00
         21   -1    0    0  501  502  0.00000000000E+00  0.00000000000E+00  0.23840566105E+03  0.23840566105E+03  0.00000000000E+00 0.  1.
         21   -1    0    0  502  503 -0.00000000000E+00 -0.00000000000E+00 -0.34692822847E+03  0.34692822847E+03  0.00000000000E+00 0.  1.
          6    1    1    2  501    0 -0.32463836413E+02  0.54040395357E+02  0.17135137780E+03  0.25083771582E+03  0.17200000000E+03 0.  1.
         -6    1    1    2    0  503  0.32463836413E+02 -0.54040395357E+02 -0.27987394522E+03  0.33449617370E+03  0.17200000000E+03 0.  1.
</event>
<event>
 4    1  0.5701701E+000  0.2526554E+03  0.7818608E-02  0.1111638E+00
         21   -1    0    0  501  502  0.00000000000E+00  0.00000000000E+00  0.10254597713E+04  0.10254597713E+04  0.00000000000E+00 0.  1.
         21   -1    0    0  502  503 -0.00000000000E+00 -0.00000000000E+00 -0.68336365566E+02  0.68336365566E+02  0.00000000000E+00 0. -1.
          6    1    1    2  501    0 -0.99659543478E+02 -0.15594460488E+03  0.64177812913E+03  0.68972016893E+03  0.17200000000E+03 0.  1.
         -6    1    1    2    0  503  0.99659543478E+02  0.15594460488E+03  0.31534527665E+03  0.40407596798E+03  0.17200000000E+03 0. -1.
</event>
<event>
 4    1  0.5701701E+000  0.1805338E+03  0.7818608E-02  0.1167287E+00
         21   -1    0    0  503  502  0.00000000000E+00  0.00000000000E+00  0.39196207665E+03  0.39196207665E+03  0.00000000000E+00 0.  1.
         21   -1    0    0  501  503 -0.00000000000E+00 -0.00000000000E+00 -0.10041551091E+03  0.10041551091E+03  0.00000000000E+00 0.  1.
          6    1    1    2  501    0  0.22928063413E+02  0.49827435661E+02  0.43695507951E+02  0.18574651235E+03  0.17200000000E+03 0.  1.
         -6    1    1    2    0  502 -0.22928063413E+02 -0.49827435661E+02  0.24785105779E+03  0.30663107521E+03  0.17200000000E+03 0.  1.
</event>
<event>
 4    1  0.5701701E+000  0.2105376E+03  0.7818608E-02  0.1141141E+00
         21   -1    0    0  503  502  0.00000000000E+00  0.00000000000E+00  0.33317483847E+03  0.33317483847E+03  0.00000000000E+00 0.  1.
         21   -1    0    0  501  503 -0.00000000000E+00 -0.00000000000E+00 -0.42900729176E+03  0.42900729176E+03  0.00000000000E+00 0. -1.
          6    1    1    2  501    0  0.10568619718E+03  0.59770478776E+02 -0.36444790731E+03  0.42088996133E+03  0.17200000000E+03 0. -1.
         -6    1    1    2    0  502 -0.10568619718E+03 -0.59770478776E+02  0.26861545402E+03  0.34129216889E+03  0.17200000000E+03 0.  1.
</event>
<event>
 4    1  0.5701701E+000  0.1983582E+03  0.7818608E-02  0.1151132E+00
         21   -1    0    0  501  502  0.00000000000E+00  0.00000000000E+00  0.61972149958E+02  0.61972149958E+02  0.00000000000E+00 0. -1.
         21   -1    0    0  502  503 -0.00000000000E+00 -0.00000000000E+00 -0.63696312832E+03  0.63696312832E+03  0.00000000000E+00 0. -1.
          6    1    1    2  501    0  0.65098493857E+02 -0.74324724369E+02 -0.26759564601E+03  0.33309669515E+03  0.17200000000E+03 0. -1.
         -6    1    1    2    0  503 -0.65098493857E+02  0.74324724369E+02 -0.30739533235E+03  0.36583858313E+03  0.17200000000E+03 0. -1.
</event>
<event>
 4    1  0.5701701E+000  0.1892167E+03  0.7818608E-02  0.1159170E+00
         21   -1    0    0  501  502  0.00000000000E+00  0.00000000000E+00  0.75030380313E+03  0.75030380313E+03  0.00000000000E+00 0.  1.
         21   -1    0    0  502  503 -0.00000000000E+00 -0.00000000000E+00 -0.48309253382E+02  0.48309253382E+02  0.00000000000E+00 0. -1.
          6    1    1    2  501    0 -0.44461574752E+01 -0.78734962653E+02  0.39517413196E+03  0.43813874199E+03  0.17200000000E+03 0. -1.
         -6    1    1    2    0  503  0.44461574752E+01  0.78734962653E+02  0.30682041778E+03  0.36047431452E+03  0.17200000000E+03 0.  1.
</event>
<event>
 4    1  0.5701701E+000  0.2341450E+03  0.7818608E-02  0.1123756E+00
         21   -1    0    0  501  502  0.00000000000E+00  0.00000000000E+00  0.26514379254E+03  0.26514379254E+03  0.00000000000E+00 0. -1.
         21   -1    0    0  502  503 -0.00000000000E+00 -0.00000000000E+00 -0.22624189725E+03  0.22624189725E+03  0.00000000000E+00 0. -1.
          6    1    1    2  501    0  0.12808743298E+03 -0.93986617126E+02  0.91529528555E+02  0.25139914336E+03  0.17200000000E+03 0. -1.
         -6    1    1    2    0  503 -0.12808743298E+03  0.93986617126E+02 -0.52627633264E+02  0.23998654643E+03  0.17200000000E+03 0. -1.
</event>
<event>
 4    1  0.5701701E+000  0.2076284E+03  0.7818608E-02  0.1143458E+00
         21   -1    0    0  501  502  0.00000000000E+00  0.00000000000E+00  0.15472216694E+03  0.15472216694E+03  0.00000000000E+00 0. -1.
         21   -1    0    0  502  503 -0.00000000000E+00 -0.00000000000E+00 -0.30030702975E+03  0.30030702975E+03  0.00000000000E+00 0. -1.
          6    1    1    2  501    0 -0.38595569364E+02 -0.10970841867E+03 -0.13392470873E+03  0.24707363823E+03  0.17200000000E+03 0. -1.
         -6    1    1    2    0  503  0.38595569364E+02  0.10970841867E+03 -0.11660154087E+02  0.20795555846E+03  0.17200000000E+03 0. -1.
</event>
<event>
 4    1  0.5701701E+000  0.2331743E+03  0.7818608E-02  0.1124425E+00
         21   -1    0    0  503  502  0.00000000000E+00  0.00000000000E+00  0.18803675548E+03  0.18803675548E+03  0.00000000000E+00 0.  1.
         21   -1    0    0  501  503 -0.00000000000E+00 -0.00000000000E+00 -0.32389559038E+03  0.32389559038E+03  0.00000000000E+00 0.  1.
          6    1    1    2  501    0 -0.13627959278E+03  0.78829623529E+02 -0.15176908418E+03  0.27821590873E+03  0.17200000000E+03 0.  1.
         -6    1    1    2    0  502  0.13627959278E+03 -0.78829623529E+02  0.15910249283E+02  0.23371643714E+03  0.17200000000E+03 0.  1.
</event>
<event>
 4    1  0.5701701E+000  0.1777333E+03  0.7818608E-02  0.1170015E+00
         21   -1    0    0  503  502  0.00000000000E+00  0.00000000000E+00  0.16970635251E+04  0.16970635251E+04  0.00000000000E+00 0.  1.
         21   -1    0    0  501  503 -0.00000000000E+00 -0.00000000000E+00 -0.27552134691E+02  0.27552134691E+02  0.00000000000E+00 0.  1.
          6    1    1    2  501    0 -0.57332765526E+00 -0.44774822356E+02  0.34361204047E+03  0.38685701206E+03  0.17200000000E+03 0.  1.
         -6    1    1    2    0  502  0.57332765526E+00  0.44774822356E+02  0.13258993500E+04  0.13377586478E+04  0.17200000000E+03 0.  1.
</event>
<event>
 4    1  0.5701701E+000  0.1989486E+03  0.7818608E-02  0.1150629E+00
         21   -1    0    0  501  502  0.00000000000E+00  0.00000000000E+00  0.14548357976E+03  0.14548357976E+03  0.00000000000E+00 0. -1.
         21   -1    0    0  502  503 -0.00000000000E+00 -0.00000000000E+00 -0.46450219204E+03  0.46450219204E+03  0.00000000000E+00 0. -1.
          6    1    1    2  501    0  0.91593970145E+02  0.40088566571E+02  0.36801296431E+02  0.20232371081E+03  0.17200000000E+03 0. -1.
         -6    1    1    2    0  503 -0.91593970145E+02 -0.40088566571E+02 -0.35581990871E+03  0.40766206099E+03  0.17200000000E+03 0. -1.
</event>
<event>
 4    1  0.5701701E+000  0.2856415E+03  0.7818608E-02  0.1092647E+00
         21   -1    0    0  501  502  0.00000000000E+00  0.00000000000E+00  0.11963570588E+04  0.11963570588E+04  0.00000000000E+00 0. -1.
         21   -1    0    0  502  503 -0.00000000000E+00 -0.00000000000E+00 -0.10838577351E+03  0.10838577351E+03  0.00000000000E+00 0.  1.
          6    1    1    2  501    0  0.19928651473E+03  0.11086900375E+03  0.94122037107E+03  0.98360908793E+03  0.17200000000E+03 0. -1.
         -6    1    1    2    0  503 -0.19928651473E+03 -0.11086900375E+03  0.14675091421E+03  0.32113374437E+03  0.17200000000E+03 0.  1.
</event>
<event>
 4    1  0.5701701E+000  0.2762732E+03  0.7818608E-02  0.1097742E+00
         21   -1    0    0  503  502  0.00000000000E+00  0.00000000000E+00  0.10731174886E+04  0.10731174886E+04  0.00000000000E+00 0. -1.
         21   -1    0    0  501  503 -0.00000000000E+00 -0.00000000000E+00 -0.10492272632E+03  0.10492272632E+03  0.00000000000E+00 0. -1.
          6    1    1    2  501    0  0.20346083939E+03 -0.73120289252E+02  0.14980179174E+03  0.31427291750E+03  0.17200000000E+03 0. -1.
         -6    1    1    2    0  502 -0.20346083939E+03  0.73120289252E+02  0.81839297053E+03  0.86376729741E+03  0.17200000000E+03 0. -1.
</event>
<event>
 4    1  0.5701701E+000  0.1957036E+03  0.7818608E-02  0.1153415E+00
         21   -1    0    0  501  502  0.00000000000E+00  0.00000000000E+00  0.59794350215E+03  0.59794350215E+03  0.00000000000E+00 0. -1.
         21   -1    0    0  502  503 -0.00000000000E+00 -0.00000000000E+00 -0.83486970494E+02  0.83486970494E+02  0.00000000000E+00 0. -1.
          6    1    1    2  501    0  0.82389588911E+02  0.43907489350E+02  0.42161471799E+03  0.46482134461E+03  0.17200000000E+03 0. -1.
         -6    1    1    2    0  503 -0.82389588911E+02 -0.43907489350E+02  0.92841813668E+02  0.21660912803E+03  0.17200000000E+03 0. -1.
</event>
<event>
 4    1  0.5701701E+000  0.2028285E+03  0.7818608E-02  0.1147374E+00
         21   -1    0    0  501  502  0.00000000000E+00  0.00000000000E+00  0.58920796007E+02  0.58920796007E+02  0.00000000000E+00 0. -1.
         21   -1    0    0  502  503 -0.00000000000E+00 -0.00000000000E+00 -0.78870244813E+03  0.78870244813E+03  0.00000000000E+00 0.  1.
          6    1    1    2  501    0  0.89414468281E+02 -0.59669695801E+02 -0.50844273286E+03  0.54740609454E+03  0.17200000000E+03 0.  1.
         -6    1    1    2    0  503 -0.89414468281E+02  0.59669695801E+02 -0.22133891926E+03  0.30021714960E+03  0.17200000000E+03 0. -1.
</event>
<event>
 4    1  0.5701701E+000  0.2865097E+03  0.7818608E-02  0.1092186E+00
         21   -1    0    0  503  502  0.00000000000E+00  0.00000000000E+00  0.59514952595E+03  0.59514952595E+03  0.00000000000E+00 0.  1.
         21   -1    0    0  501  503 -0.00000000000E+00 -0.00000000000E+00 -0.33394334402E+03  0.33394334402E+03  0.00000000000E+00 0. -1.
          6    1    1    2  501    0  0.20363492424E+03 -0.10505545297E+03 -0.22530485426E+03  0.36448608742E+03  0.17200000000E+03 0. -1.
         -6    1    1    2    0  502 -0.20363492424E+03  0.10505545297E+03  0.48651103619E+03  0.56460678255E+03  0.17200000000E+03 0.  1.
</event>
<event>
 4    1  0.5701701E+000  0.2612561E+03  0.7818608E-02  0.1106391E+00
         21   -1    0    0  501  502  0.00000000000E+00  0.00000000000E+00  0.12826218236E+04  0.12826218236E+04  0.00000000000E+00 0.  1.
         21   -1    0    0  502  503 -0.00000000000E+00 -0.00000000000E+00 -0.11833058732E+03  0.11833058732E+03  0.00000000000E+00 0.  1.
          6    1    1    2  501    0 -0.13997813765E+03 -0.13811898843E+03  0.62523866206E+02  0.26863351956E+03  0.17200000000E+03 0.  1.
         -6    1    1    2    0  503  0.13997813765E+03  0.13811898843E+03  0.11017673701E+04  0.11323188914E+04  0.17200000000E+03 0.  1.
</event>
<event>
 4    1  0.5701701E+000  0.1852737E+03  0.7818608E-02  0.1162795E+00
         21   -1    0    0  503  502  0.00000000000E+00  0.00000000000E+00  0.23435907307E+02  0.23435907307E+02  0.00000000000E+00 0. -1.
         21   -1    0    0  501  503 -0.00000000000E+00 -0.00000000000E+00 -0.16155493829E+04  0.16155493829E+04  0.00000000000E+00 0. -1.
          6    1    1    2  501    0 -0.60319746127E+02 -0.33224426031E+02 -0.10464781155E+04  0.10627524550E+04  0.17200000000E+03 0. -1.
         -6    1    1    2    0  502  0.60319746127E+02  0.33224426031E+02 -0.54563536008E+03  0.57623283526E+03  0.17200000000E+03 0. -1.
</event>
<event>
 4    1  0.5701701E+000  0.2377014E+03  0.7818608E-02  0.1121334E+00
         21   -1    0    0  503  502  0.00000000000E+00  0.00000000000E+00  0.27594042980E+03  0.27594042980E+03  0.00000000000E+00 0. -1.
         21   -1    0    0  501  503 -0.00000000000E+00 -0.00000000000E+00 -0.20621588264E+03  0.20621588264E+03  0.00000000000E+00 0. -1.
          6    1    1    2  501    0  0.10882417339E+03 -0.12278139248E+03  0.14616284680E+02  0.23815038701E+03  0.17200000000E+03 0.  1.
         -6    1    1    2    0  502 -0.10882417339E+03  0.12278139248E+03  0.55108262479E+02  0.24400592544E+03  0.17200000000E+03 0.  1.
</event>
<event>
 4    1  0.5701701E+000  0.1755304E+03  0.7818608E-02  0.1172200E+00
         21   -1    0    0  501  502  0.00000000000E+00  0.00000000000E+00  0.42795544492E+02  0.42795544492E+02  0.00000000000E+00 0.  1.
         21   -1    0    0  502  503 -0.00000000000E+00 -0.00000000000E+00 -0.87460468487E+03  0.87460468487E+03  0.00000000000E+00 0.  1.
          6    1    1    2  501    0 -0.15208962328E+02  0.31553026696E+02 -0.22302058827E+03  0.28381171368E+03  0.17200000000E+03 0.  1.
         -6    1    1    2    0  503  0.15208962328E+02 -0.31553026696E+02 -0.60878855211E+03  0.63358851569E+03  0.17200000000E+03 0.  1.
</event>
<event>
 4    1  0.5701701E+000  0.1747357E+03  0.7818608E-02  0.1172997E+00
         21   -1    0    0  501  502  0.00000000000E+00  0.00000000000E+00  0.25299514595E+03  0.25299514595E+03  0.00000000000E+00 0.  1.
         21   -1    0    0  502  503 -0.00000000000E+00 -0.00000000000E+00 -0.12229797616E+03  0.12229797616E+03  0.00000000000E+00 0.  1.
          6    1    1    2  501    0 -0.54805352780E+01  0.30307087916E+02  0.86902782063E+02  0.19515288718E+03  0.17200000000E+03 0.  1.
         -6    1    1    2    0  503  0.54805352780E+01 -0.30307087916E+02  0.43794387719E+02  0.18014023493E+03  0.17200000000E+03 0.  1.
</event>
<event>
 4    1  0.5701701E+000  0.2499067E+03  0.7818608E-02  0.1113364E+00
         21   -1    0    0  501  502  0.00000000000E+00  0.00000000000E+00  0.93486371930E+02  0.93486371930E+02  0.00000000000E+00 0.  1.
         21   -1    0    0  502  503 -0.00000000000E+00 -0.00000000000E+00 -0.68775071004E+03  0.68775071004E+03  0.00000000000E+00 0.  1.
          6    1    1    2  501    0 -0.65606139038E+02 -0.16901235930E+03 -0.23101639096E+03  0.34032619054E+03  0.17200000000E+03 0.  1.
         -6    1    1    2    0  503  0.65606139038E+02  0.16901235930E+03 -0.36324794716E+03  0.44091089144E+03  0.17200000000E+03 0.  1.
</event>
<event>
 4    1  0.5701701E+000  0.1889521E+03  0.7818608E-02  0.1159410E+00
         21   -1    0    0  501  502  0.00000000000E+00  0.00000000000E+00  0.71851646566E+03  0.71851646566E+03  0.00000000000E+00 0. -1.
         21   -1    0    0  502  503 -0.00000000000E+00 -0.00000000000E+00 -0.71388003001E+02  0.71388003001E+02  0.00000000000E+00 0. -1.
          6    1    1    2  501    0  0.40908615577E+02 -0.66673586791E+02  0.54130745228E+03  0.57333815493E+03  0.17200000000E+03 0. -1.
         -6    1    1    2    0  503 -0.40908615577E+02  0.66673586791E+02  0.10582101037E+03  0.21656631372E+03  0.17200000000E+03 0. -1.
</event>
<event>
 4    1  0.5701701E+000  0.2457836E+03  0.7818608E-02  0.1115999E+00
         21   -1    0    0  501  502  0.00000000000E+00  0.00000000000E+00  0.62441002419E+03  0.62441002419E+03  0.00000000000E+00 0.  1.
         21   -1    0    0  502  503 -0.00000000000E+00 -0.00000000000E+00 -0.10761961587E+03  0.10761961587E+03  0.00000000000E+00 0.  1.
          6    1    1    2  501    0 -0.16607238385E+03  0.56969703683E+02  0.37473459357E+03  0.44814685030E+03  0.17200000000E+03 0.  1.
         -6    1    1    2    0  503  0.16607238385E+03 -0.56969703683E+02  0.14205581474E+03  0.28388278976E+03  0.17200000000E+03 0.  1.
</event>
<event>
 4    1  0.5701701E+000  0.2199793E+03  0.7818608E-02  0.1133898E+00
         21   -1    0    0  503  502  0.00000000000E+00  0.00000000000E+00  0.36774018577E+03  0.36774018577E+03  0.00000000000E+00 0.  1.
         21   -1    0    0  501  503 -0.00000000000E+00 -0.00000000000E+00 -0.14732213741E+03  0.14732213741E+03  0.00000000000E+00 0.  1.
          6    1    1    2  501    0 -0.11645614184E+03  0.72421485599E+02  0.26051947487E+02  0.22151661002E+03  0.17200000000E+03 0.  1.
         -6    1    1    2    0  502  0.11645614184E+03 -0.72421485599E+02  0.19436610087E+03  0.29354571316E+03  0.17200000000E+03 0.  1.
</event>
<event>
 4    1  0.5701701E+000  0.2307063E+03  0.7818608E-02  0.1126144E+00
         21   -1    0    0  503  502  0.00000000000E+00  0.00000000000E+00  0.21717381843E+03  0.21717381843E+03  0.00000000000E+00 0. -1.
         21   -1    0    0  501  503 -0.00000000000E+00 -0.00000000000E+00 -0.24516677953E+03  0.24516677953E+03  0.00000000000E+00 0. -1.
          6    1    1    2  501    0  0.98591245175E+02  0.11798796698E+03 -0.18295251228E+02  0.23143057316E+03  0.17200000000E+03 0. -1.
         -6    1    1    2    0  502 -0.98591245175E+02 -0.11798796698E+03 -0.96977098798E+01  0.23091002480E+03  0.17200000000E+03 0. -1.
</event>
<event>
 4    1  0.5701701E+000  0.1888103E+03  0.7818608E-02  0.1159539E+00
         21   -1    0    0  503  502  0.00000000000E+00  0.00000000000E+00  0.11482770453E+03  0.11482770453E+03  0.00000000000E+00 0.  1.
         21   -1    0    0  501  503 -0.00000000000E+00 -0.00000000000E+00 -0.31045975653E+03  0.31045975653E+03  0.00000000000E+00 0.  1.
          6    1    1    2  501    0 -0.25280831741E+02  0.73662748504E+02 -0.98092403069E+02  0.21277086387E+03  0.17200000000E+03 0.  1.
         -6    1    1    2    0  502  0.25280831741E+02 -0.73662748504E+02 -0.97539648923E+02  0.21251659719E+03  0.17200000000E+03 0.  1.
</event>
<event>
 4    1  0.5701701E+000  0.1744524E+03  0.7818608E-02  0.1173283E+00
         21   -1    0    0  503  502  0.00000000000E+00  0.00000000000E+00  0.22130530321E+03  0.22130530321E+03  0.00000000000E+00 0.  1.
         21   -1    0    0  501  503 -0.00000000000E+00 -0.00000000000E+00 -0.14147089201E+03  0.14147089201E+03  0.00000000000E+00 0.  1.
          6    1    1    2  501    0  0.28219934231E+02 -0.72992695025E+01  0.96001027186E+01  0.17471635869E+03  0.17200000000E+03 0.  1.
         -6    1    1    2    0  502 -0.28219934231E+02  0.72992695025E+01  0.70234308480E+02  0.18805983652E+03  0.17200000000E+03 0.  1.
</event>
<event>
 4    1  0.5701701E+000  0.2925642E+03  0.7818608E-02  0.1089018E+00
         21   -1    0    0  503  502  0.00000000000E+00  0.00000000000E+00  0.82509968409E+03  0.82509968409E+03  0.00000000000E+00 0. -1.
         21   -1    0    0  501  503 -0.00000000000E+00 -0.00000000000E+00 -0.11908951433E+03  0.11908951433E+03  0.00000000000E+00 0.  1.
          6    1    1    2  501    0 -0.79399745700E+02  0.22294725071E+03  0.18350315412E+03  0.34535084159E+03  0.17200000000E+03 0.  1.
         -6    1    1    2    0  502  0.79399745700E+02 -0.22294725071E+03  0.52250701564E+03  0.59883835683E+03  0.17200000000E+03 0. -1.
</event>
<event>
 4    1  0.5701701E+000  0.1847070E+03  0.7818608E-02  0.1163324E+00
         21   -1    0    0  503  502  0.00000000000E+00  0.00000000000E+00  0.44909732688E+02  0.44909732688E+02  0.00000000000E+00 0.  1.
         21   -1    0    0  501  503 -0.00000000000E+00 -0.00000000000E+00 -0.84381652947E+03  0.84381652947E+03  0.00000000000E+00 0.  1.
          6    1    1    2  501    0 -0.18117314112E+02 -0.64841519164E+02 -0.25913089104E+03  0.31822237252E+03  0.17200000000E+03 0.  1.
         -6    1    1    2    0  502  0.18117314112E+02  0.64841519164E+02 -0.53977590574E+03  0.57050388964E+03  0.17200000000E+03 0.  1.
</event>
<event>
 4    1  0.5701701E+000  0.3959398E+03  0.7818608E-02  0.1045195E+00
         21   -1    0    0  503  502  0.00000000000E+00  0.00000000000E+00  0.17388725366E+04  0.17388725366E+04  0.00000000000E+00 0.  1.
         21   -1    0    0  501  503 -0.00000000000E+00 -0.00000000000E+00 -0.13947653958E+03  0.13947653958E+03  0.00000000000E+00 0. -1.
          6    1    1    2  501    0  0.35364718393E+03  0.46021781916E+02  0.24121066548E+03  0.46362799770E+03  0.17200000000E+03 0. -1.
         -6    1    1    2    0  502 -0.35364718393E+03 -0.46021781916E+02  0.13581853315E+04  0.14147210785E+04  0.17200000000E+03 0.  1.
</event>
<event>
 4    1  0.5701701E+000  0.1957187E+03  0.7818608E-02  0.1153402E+00
         21   -1    0    0  503  502  0.00000000000E+00  0.00000000000E+00  0.25045955087E+02  0.25045955087E+02  0.00000000000E+00 0. -1.
         21   -1    0    0  501  503 -0.00000000000E+00 -0.00000000000E+00 -0.15879754513E+04  0.15879754513E+04  0.00000000000E+00 0.  1.
          6    1    1    2  501    0  0.64684945141E+02 -0.67362187782E+02 -0.93633523919E+03  0.95657173627E+03  0.17200000000E+03 0.  1.
         -6    1    1    2    0  502 -0.64684945141E+02  0.67362187782E+02 -0.62659425704E+03  0.65644967014E+03  0.17200000000E+03 0. -1.
</event>
<event>
 4    1  0.5701701E+000  0.2336448E+03  0.7818608E-02  0.1124100E+00
         21   -1    0    0  503  502  0.00000000000E+00  0.00000000000E+00  0.31143762288E+03  0.31143762288E+03  0.00000000000E+00 0. -1.
         21   -1    0    0  501  503 -0.00000000000E+00 -0.00000000000E+00 -0.19280606890E+03  0.19280606890E+03  0.00000000000E+00 0. -1.
          6    1    1    2  501    0 -0.13682715176E+03  0.79273235559E+02 -0.16690152411E+02  0.23424021115E+03  0.17200000000E+03 0. -1.
         -6    1    1    2    0  502  0.13682715176E+03 -0.79273235559E+02  0.13532170639E+03  0.27000348063E+03  0.17200000000E+03 0. -1.
</event>
<event>
 4    1  0.5701701E+000  0.2179902E+03  0.7818608E-02  0.1135390E+00
         21   -1    0    0  503  502  0.00000000000E+00  0.00000000000E+00  0.12847313583E+03  0.12847313583E+03  0.00000000000E+00 0. -1.
         21   -1    0    0  501  503 -0.00000000000E+00 -0.00000000000E+00 -0.37645704914E+03  0.37645704914E+03  0.00000000000E+00 0. -1.
          6    1    1    2  501    0 -0.11601285937E+03 -0.66908478193E+02 -0.15736051509E+03  0.26885323078E+03  0.17200000000E+03 0. -1.
         -6    1    1    2    0  502  0.11601285937E+03  0.66908478193E+02 -0.90623398215E+02  0.23607695418E+03  0.17200000000E+03 0. -1.
</event>
<event>
 4    1  0.5701701E+000  0.1849206E+03  0.7818608E-02  0.1163124E+00
         21   -1    0    0  501  502  0.00000000000E+00  0.00000000000E+00  0.74183748254E+03  0.74183748254E+03  0.00000000000E+00 0. -1.
         21   -1    0    0  502  503 -0.00000000000E+00 -0.00000000000E+00 -0.11645163555E+03  0.11645163555E+03  0.00000000000E+00 0. -1.
          6    1    1    2  501    0 -0.63051629959E+02  0.25221714869E+02  0.64625807007E+03  0.67219426959E+03  0.17200000000E+03 0. -1.
         -6    1    1    2    0  503  0.63051629959E+02 -0.25221714869E+02 -0.20872223074E+02  0.18609484850E+03  0.17200000000E+03 0. -1.
</event>
<event>
 4    1  0.5701701E+000  0.2075295E+03  0.7818608E-02  0.1143537E+00
         21   -1    0    0  503  502  0.00000000000E+00  0.00000000000E+00  0.44216605319E+02  0.44216605319E+02  0.00000000000E+00 0.  1.
         21   -1    0    0  501  503 -0.00000000000E+00 -0.00000000000E+00 -0.11497460300E+04  0.11497460300E+04  0.00000000000E+00 0.  1.
          6    1    1    2  501    0  0.90339937421E+02 -0.72960155130E+02 -0.78614286901E+03  0.81307385828E+03  0.17200000000E+03 0. -1.
         -6    1    1    2    0  502 -0.90339937421E+02  0.72960155130E+02 -0.31938655569E+03  0.38088877706E+03  0.17200000000E+03 0. -1.
</event>
<event>
 4    1  0.5701701E+000  0.2135275E+03  0.7818608E-02  0.1138803E+00
         21   -1    0    0  501  502  0.00000000000E+00  0.00000000000E+00  0.84977227446E+03  0.84977227446E+03  0.00000000000E+00 0. -1.
         21   -1    0    0  502  503 -0.00000000000E+00 -0.00000000000E+00 -0.69142204819E+02  0.69142204819E+02  0.00000000000E+00 0. -1.
          6    1    1    2  501    0 -0.12140902211E+03  0.35634649660E+02  0.60776989741E+03  0.64418803707E+03  0.17200000000E+03 0. -1.
         -6    1    1    2    0  503  0.12140902211E+03 -0.35634649660E+02  0.17286017223E+03  0.27472644221E+03  0.17200000000E+03 0. -1.
</event>
<event>
 4    1  0.5701701E+000  0.1946962E+03  0.7818608E-02  0.1154293E+00
         21   -1    0    0  501  502  0.00000000000E+00  0.00000000000E+00  0.48938395076E+03  0.48938395076E+03  0.00000000000E+00 0.  1.
         21   -1    0    0  502  503 -0.00000000000E+00 -0.00000000000E+00 -0.77783459648E+02  0.77783459648E+02  0.00000000000E+00 0.  1.
          6    1    1    2  501    0  0.90219716389E+02 -0.13528594690E+02  0.18745185700E+03  0.27026804989E+03  0.17200000000E+03 0.  1.
         -6    1    1    2    0  503 -0.90219716389E+02  0.13528594690E+02  0.22414863411E+03  0.29689936052E+03  0.17200000000E+03 0.  1.
</event>
<event>
 4    1  0.5701701E+000  0.1980597E+03  0.7818608E-02  0.1151386E+00
         21   -1    0    0  503  502  0.00000000000E+00  0.00000000000E+00  0.74931235484E+02  0.74931235484E+02  0.00000000000E+00 0. -1.
         21   -1    0    0  501  503 -0.00000000000E+00 -0.00000000000E+00 -0.52448440891E+03  0.52448440891E+03  0.00000000000E+00 0.  1.
          6    1    1    2  501    0  0.91396812550E+02 -0.35920439935E+02 -0.21189418696E+03  0.29004620635E+03  0.17200000000E+03 0. -1.
         -6    1    1    2    0  502 -0.91396812550E+02  0.35920439935E+02 -0.23765898646E+03  0.30936943804E+03  0.17200000000E+03 0. -1.
</event>
<event>
 4    1  0.5701701E+000  0.1847702E+03  0.7818608E-02  0.1163265E+00
         21   -1    0    0  501  502  0.00000000000E+00  0.00000000000E+00  0.28249133206E+03  0.28249133206E+03  0.00000000000E+00 0. -1.
         21   -1    0    0  502  503 -0.00000000000E+00 -0.00000000000E+00 -0.21130977287E+03  0.21130977287E+03  0.00000000000E+00 0. -1.
          6    1    1    2  501    0  0.55631998062E+02 -0.38224204729E+02  0.19713153169E+03  0.27018669438E+03  0.17200000000E+03 0. -1.
         -6    1    1    2    0  503 -0.55631998062E+02  0.38224204729E+02 -0.12594997250E+03  0.22361441056E+03  0.17200000000E+03 0. -1.
</event>
<event>
 4    1  0.5701701E+000  0.2079631E+03  0.7818608E-02  0.1143189E+00
         21   -1    0    0  501  502  0.00000000000E+00  0.00000000000E+00  0.16456017807E+04  0.16456017807E+04  0.00000000000E+00 0.  1.
         21   -1    0    0  502  503 -0.00000000000E+00 -0.00000000000E+00 -0.30071081906E+02  0.30071081906E+02  0.00000000000E+00 0.  1.
          6    1    1    2  501    0  0.32904741309E+02 -0.11216915424E+03  0.11051981023E+04  0.11245939207E+04  0.17200000000E+03 0.  1.
         -6    1    1    2    0  503 -0.32904741309E+02  0.11216915424E+03  0.51033259654E+03  0.55107894194E+03  0.17200000000E+03 0.  1.
</event>
<event>
 4    1  0.5701701E+000  0.2006496E+03  0.7818608E-02  0.1149192E+00
         21   -1    0    0  503  502  0.00000000000E+00  0.00000000000E+00  0.52806164727E+02  0.52806164727E+02  0.00000000000E+00 0. -1.
         21   -1    0    0  501  503 -0.00000000000E+00 -0.00000000000E+00 -0.92680253327E+03  0.92680253327E+03  0.00000000000E+00 0. -1.
          6    1    1    2  501    0 -0.68673744182E+02  0.77202160516E+02 -0.23071569986E+03  0.30576132995E+03  0.17200000000E+03 0. -1.
         -6    1    1    2    0  502  0.68673744182E+02 -0.77202160516E+02 -0.64328066868E+03  0.67384736805E+03  0.17200000000E+03 0. -1.
</event>
<event>
 4    1  0.5701701E+000  0.1741477E+03  0.7818608E-02  0.1173590E+00
         21   -1    0    0  501  502  0.00000000000E+00  0.00000000000E+00  0.27437692421E+03  0.27437692421E+03  0.00000000000E+00 0.  1.
         21   -1    0    0  502  503 -0.00000000000E+00 -0.00000000000E+00 -0.12221441183E+03  0.12221441183E+03  0.00000000000E+00 0.  1.
          6    1    1    2  501    0 -0.27225830032E+02  0.14694728286E+01  0.14772858447E+02  0.17477311726E+03  0.17200000000E+03 0.  1.
         -6    1    1    2    0  503  0.27225830032E+02 -0.14694728286E+01  0.13738965393E+03  0.22181821877E+03  0.17200000000E+03 0.  1.
</event>
<event>
 4    1  0.5701701E+000  0.3265091E+03  0.7818608E-02  0.1072692E+00
         21   -1    0    0  501  502  0.00000000000E+00  0.00000000000E+00  0.57662955788E+02  0.57662955788E+02  0.00000000000E+00 0.  1.
         21   -1    0    0  502  503 -0.00000000000E+00 -0.00000000000E+00 -0.18885293213E+04  0.18885293213E+04  0.00000000000E+00 0. -1.
          6    1    1    2  501    0  0.16769684643E+03 -0.22113792567E+03 -0.77432241109E+03  0.84034719657E+03  0.17200000000E+03 0.  1.
         -6    1    1    2    0  503 -0.16769684643E+03  0.22113792567E+03 -0.10565439544E+04  0.11058450805E+04  0.17200000000E+03 0.  1.
</event>
<event>
 4    1  0.5701701E+000  0.2813264E+03  0.7818608E-02  0.1094967E+00
         21   -1    0    0  503  502  0.00000000000E+00  0.00000000000E+00  0.31594349419E+03  0.31594349419E+03  0.00000000000E+00 0. -1.
         21   -1    0    0  501  503 -0.00000000000E+00 -0.00000000000E+00 -0.83564894512E+03  0.83564894512E+03  0.00000000000E+00 0.  1.
          6    1    1    2  501    0  0.22255137365E+03  0.56044415469E+01 -0.74167768211E+03  0.79324038463E+03  0.17200000000E+03 0.  1.
         -6    1    1    2    0  502 -0.22255137365E+03 -0.56044415469E+01  0.22197223117E+03  0.35835205468E+03  0.17200000000E+03 0. -1.
</event>
<event>
 4    1  0.5701701E+000  0.1880855E+03  0.7818608E-02  0.1160199E+00
         21   -1    0    0  501  502  0.00000000000E+00  0.00000000000E+00  0.18588485638E+03  0.18588485638E+03  0.00000000000E+00 0. -1.
         21   -1    0    0  502  503 -0.00000000000E+00 -0.00000000000E+00 -0.23617724630E+03  0.23617724630E+03  0.00000000000E+00 0. -1.
          6    1    1    2  501    0  0.34568758306E+02  0.67802352914E+02 -0.11814303647E+03  0.22211243814E+03  0.17200000000E+03 0.  1.
         -6    1    1    2    0  503 -0.34568758306E+02 -0.67802352914E+02  0.67850646549E+02  0.19994966454E+03  0.17200000000E+03 0.  1.
</event>
<event>
 4    1  0.5701701E+000  0.2054589E+03  0.7818608E-02  0.1145213E+00
         21   -1    0    0  501  502  0.00000000000E+00  0.00000000000E+00  0.16693786740E+03  0.16693786740E+03  0.00000000000E+00 0. -1.
         21   -1    0    0  502  503 -0.00000000000E+00 -0.00000000000E+00 -0.25557002867E+03  0.25557002867E+03  0.00000000000E+00 0. -1.
          6    1    1    2  501    0  0.48195891816E+02 -0.10152092883E+03 -0.22596696323E+02  0.20669773502E+03  0.17200000000E+03 0. -1.
         -6    1    1    2    0  503 -0.48195891816E+02  0.10152092883E+03 -0.66035464953E+02  0.21581016104E+03  0.17200000000E+03 0. -1.
</event>
<event>
 4    1  0.5701701E+000  0.1789391E+03  0.7818608E-02  0.1168834E+00
         21   -1    0    0  503  502  0.00000000000E+00  0.00000000000E+00  0.37062958471E+03  0.37062958471E+03  0.00000000000E+00 0. -1.
         21   -1    0    0  501  503 -0.00000000000E+00 -0.00000000000E+00 -0.86571782632E+02  0.86571782632E+02  0.00000000000E+00 0. -1.
          6    1    1    2  501    0  0.10565114608E+02  0.48203584080E+02  0.13159391906E+03  0.22211746149E+03  0.17200000000E+03 0. -1.
         -6    1    1    2    0  502 -0.10565114608E+02 -0.48203584080E+02  0.15246388302E+03  0.23508390585E+03  0.17200000000E+03 0. -1.
</event>
<event>
 4    1  0.5701701E+000  0.1869474E+03  0.7818608E-02  0.1161244E+00
         21   -1    0    0  501  502  0.00000000000E+00  0.00000000000E+00  0.21803073673E+02  0.21803073673E+02  0.00000000000E+00 0.  1.
         21   -1    0    0  502  503 -0.00000000000E+00 -0.00000000000E+00 -0.22528412755E+04  0.22528412755E+04  0.00000000000E+00 0.  1.
          6    1    1    2  501    0 -0.53639373617E+02 -0.49881363184E+02 -0.50466556237E+03  0.53817902471E+03  0.17200000000E+03 0.  1.
         -6    1    1    2    0  503  0.53639373617E+02  0.49881363184E+02 -0.17263726394E+04  0.17364653244E+04  0.17200000000E+03 0.  1.
</event>
<event>
 4    1  0.5701701E+000  0.3012944E+03  0.7818608E-02  0.1084595E+00
         21   -1    0    0  501  502  0.00000000000E+00  0.00000000000E+00  0.93521649397E+02  0.93521649397E+02  0.00000000000E+00 0. -1.
         21   -1    0    0  502  503 -0.00000000000E+00 -0.00000000000E+00 -0.12483241408E+04  0.12483241408E+04  0.00000000000E+00 0.  1.
          6    1    1    2  501    0 -0.98950338943E+02  0.22672265395E+03 -0.26098137538E+03  0.39860959557E+03  0.17200000000E+03 0. -1.
         -6    1    1    2    0  503  0.98950338943E+02 -0.22672265395E+03 -0.89382111601E+03  0.94323619460E+03  0.17200000000E+03 0.  1.
</event>
<event>
 4    1  0.5701701E+000  0.1788297E+03  0.7818608E-02  0.1168940E+00
         21   -1    0    0  503  502  0.00000000000E+00  0.00000000000E+00  0.30434223071E+03  0.30434223071E+03  0.00000000000E+00 0. -1.
         21   -1    0    0  501  503 -0.00000000000E+00 -0.00000000000E+00 -0.11873334074E+03  0.11873334074E+03  0.00000000000E+00 0.  1.
          6    1    1    2  501    0  0.38265993812E+02 -0.30525147695E+02  0.21069282863E+02  0.18006661435E+03  0.17200000000E+03 0.  1.
         -6    1    1    2    0  502 -0.38265993812E+02  0.30525147695E+02  0.16453960710E+03  0.24300895710E+03  0.17200000000E+03 0. -1.
</event>
<event>
 4    1  0.5701701E+000  0.1738969E+03  0.7818608E-02  0.1173844E+00
         21   -1    0    0  501  502  0.00000000000E+00  0.00000000000E+00  0.71079393991E+02  0.71079393991E+02  0.00000000000E+00 0. -1.
         21   -1    0    0  502  503 -0.00000000000E+00 -0.00000000000E+00 -0.43501709937E+03  0.43501709937E+03  0.00000000000E+00 0. -1.
          6    1    1    2  501    0 -0.56522978510E+01 -0.24983973039E+02 -0.14442613633E+03  0.22605100361E+03  0.17200000000E+03 0. -1.
         -6    1    1    2    0  503  0.56522978510E+01  0.24983973039E+02 -0.21951156905E+03  0.28004548974E+03  0.17200000000E+03 0. -1.
</event>
<event>
 4    1  0.5701701E+000  0.1745727E+03  0.7818608E-02  0.1173161E+00
         21   -1    0    0  503  502  0.00000000000E+00  0.00000000000E+00  0.38694474070E+02  0.38694474070E+02  0.00000000000E+00 0. -1.
         21   -1    0    0  501  503 -0.00000000000E+00 -0.00000000000E+00 -0.11538175107E+04  0.11538175107E+04  0.00000000000E+00 0. -1.
          6    1    1    2  501    0  0.15974946827E+02  0.25227394872E+02 -0.22164140684E+03  0.28213566525E+03  0.17200000000E+03 0. -1.
         -6    1    1    2    0  502 -0.15974946827E+02 -0.25227394872E+02 -0.89348162978E+03  0.91037631951E+03  0.17200000000E+03 0. -1.
</event>
<event>
 4    1  0.5701701E+000  0.1943216E+03  0.7818608E-02  0.1154620E+00
         21   -1    0    0  501  502  0.00000000000E+00  0.00000000000E+00  0.17443612270E+03  0.17443612270E+03  0.00000000000E+00 0. -1.
         21   -1    0    0  502  503 -0.00000000000E+00 -0.00000000000E+00 -0.89820085764E+03  0.89820085764E+03  0.00000000000E+00 0. -1.
          6    1    1    2  501    0  0.85248803641E+02 -0.30158328865E+02  0.10535895317E+03  0.22104613169E+03  0.17200000000E+03 0. -1.
         -6    1    1    2    0  503 -0.85248803641E+02  0.30158328865E+02 -0.82912368811E+03  0.85159084865E+03  0.17200000000E+03 0. -1.
</event>
<event>
 4    1  0.5701701E+000  0.1731742E+03  0.7818608E-02  0.1174578E+00
         21   -1    0    0  501  502  0.00000000000E+00  0.00000000000E+00  0.47895755303E+02  0.47895755303E+02  0.00000000000E+00 0. -1.
         21   -1    0    0  502  503 -0.00000000000E+00 -0.00000000000E+00 -0.73256629070E+03  0.73256629070E+03  0.00000000000E+00 0. -1.
          6    1    1    2  501    0  0.16201999651E+01 -0.20066720710E+02 -0.19359478875E+03  0.25974649287E+03  0.17200000000E+03 0.  1.
         -6    1    1    2    0  503 -0.16201999651E+01  0.20066720710E+02 -0.49107574664E+03  0.52071555313E+03  0.17200000000E+03 0.  1.
</event>
<event>
 4    1  0.5701701E+000  0.3226940E+03  0.7818608E-02  0.1074416E+00
         21   -1    0    0  501  502  0.00000000000E+00  0.00000000000E+00  0.10666950877E+03  0.10666950877E+03  0.00000000000E+00 0.  1.
         21   -1    0    0  502  503 -0.00000000000E+00 -0.00000000000E+00 -0.10256961231E+04  0.10256961231E+04  0.00000000000E+00 0. -1.
          6    1    1    2  501    0  0.18978771560E+03  0.19628553121E+03 -0.33514556946E+03  0.46524610636E+03  0.17200000000E+03 0. -1.
         -6    1    1    2    0  503 -0.18978771560E+03 -0.19628553121E+03 -0.58388104489E+03  0.66711952552E+03  0.17200000000E+03 0.  1.
</event>
<event>
 4    1  0.5701701E+000  0.1837868E+03  0.7818608E-02  0.1164188E+00
         21   -1    0    0  503  502  0.00000000000E+00  0.00000000000E+00  0.75761613964E+02  0.75761613964E+02  0.00000000000E+00 0.  1.
         21   -1    0    0  501  503 -0.00000000000E+00 -0.00000000000E+00 -0.49518197567E+03  0.49518197567E+03  0.00000000000E+00 0. -1.
          6    1    1    2  501    0 -0.49113435683E+01 -0.64571413849E+02 -0.29982314366E+03  0.35166959814E+03  0.17200000000E+03 0. -1.
         -6    1    1    2    0  502  0.49113435683E+01  0.64571413849E+02 -0.11959721805E+03  0.21927399150E+03  0.17200000000E+03 0.  1.
</event>
<event>
 4    1  0.5701701E+000  0.1928706E+03  0.7818608E-02  0.1155897E+00
         21   -1    0    0  503  502  0.00000000000E+00  0.00000000000E+00  0.23561510976E+03  0.23561510976E+03  0.00000000000E+00 0.  1.
         21   -1    0    0  501  503 -0.00000000000E+00 -0.00000000000E+00 -0.19027439796E+03  0.19027439796E+03  0.00000000000E+00 0.  1.
          6    1    1    2  501    0  0.33681733303E+02 -0.80502131288E+02 -0.65192997668E+02  0.20359071503E+03  0.17200000000E+03 0.  1.
         -6    1    1    2    0  502 -0.33681733303E+02  0.80502131288E+02  0.11053370947E+03  0.22229879269E+03  0.17200000000E+03 0.  1.
</event>
<event>
 4    1  0.5701701E+000  0.2023032E+03  0.7818608E-02  0.1147810E+00
         21   -1    0    0  501  502  0.00000000000E+00  0.00000000000E+00  0.43599336095E+02  0.43599336095E+02  0.00000000000E+00 0.  1.
         21   -1    0    0  502  503 -0.00000000000E+00 -0.00000000000E+00 -0.13638575123E+04  0.13638575123E+04  0.00000000000E+00 0.  1.
          6    1    1    2  501    0 -0.10273262314E+03 -0.28081856001E+02 -0.26721566996E+03  0.33515786842E+03  0.17200000000E+03 0.  1.
         -6    1    1    2    0  503  0.10273262314E+03  0.28081856001E+02 -0.10530425062E+04  0.10722989800E+04  0.17200000000E+03 0.  1.
</event>
<event>
 4    1  0.5701701E+000  0.2849610E+03  0.7818608E-02  0.1093010E+00
         21   -1    0    0  501  502  0.00000000000E+00  0.00000000000E+00  0.29870319017E+03  0.29870319017E+03  0.00000000000E+00 0. -1.
         21   -1    0    0  502  503 -0.00000000000E+00 -0.00000000000E+00 -0.29938111442E+03  0.29938111442E+03  0.00000000000E+00 0. -1.
          6    1    1    2  501    0 -0.21438403386E+03 -0.75221513712E+02  0.90343530226E+02  0.29893936434E+03  0.17200000000E+03 0. -1.
         -6    1    1    2    0  503  0.21438403386E+03  0.75221513712E+02 -0.91021454473E+02  0.29914494025E+03  0.17200000000E+03 0. -1.
</event>
<event>
 4    1  0.5701701E+000  0.1726247E+03  0.7818608E-02  0.1175138E+00
         21   -1    0    0  501  502  0.00000000000E+00  0.00000000000E+00  0.93842121357E+02  0.93842121357E+02  0.00000000000E+00 0.  1.
         21   -1    0    0  502  503 -0.00000000000E+00 -0.00000000000E+00 -0.45222955108E+03  0.45222955108E+03  0.00000000000E+00 0.  1.
          6    1    1    2  501    0  0.14652785132E+02  0.75726046782E+00 -0.30190388780E+02  0.17524479202E+03  0.17200000000E+03 0.  1.
         -6    1    1    2    0  503 -0.14652785132E+02 -0.75726046782E+00 -0.32819704094E+03  0.37082688041E+03  0.17200000000E+03 0.  1.
</event>
<event>
 4    1  0.5701701E+000  0.2506352E+03  0.7818608E-02  0.1112904E+00
         21   -1    0    0  503  502  0.00000000000E+00  0.00000000000E+00  0.65836889801E+02  0.65836889801E+02  0.00000000000E+00 0. -1.
         21   -1    0    0  501  503 -0.00000000000E+00 -0.00000000000E+00 -0.17935214910E+04  0.17935214910E+04  0.00000000000E+00 0.  1.
          6    1    1    2  501    0 -0.39293950605E+01  0.18225956672E+03 -0.14998436242E+04  0.15206409461E+04  0.17200000000E+03 0.  1.
         -6    1    1    2    0  502  0.39293950605E+01 -0.18225956672E+03 -0.22784097706E+03  0.33871743479E+03  0.17200000000E+03 0. -1.
</event>
<event>
 4    1  0.5701701E+000  0.2324060E+03  0.7818608E-02  0.1124958E+00
         21   -1    0    0  501  502  0.00000000000E+00  0.00000000000E+00  0.54784125608E+03  0.54784125608E+03  0.00000000000E+00 0. -1.
         21   -1    0    0  502  503 -0.00000000000E+00 -0.00000000000E+00 -0.13004841727E+03  0.13004841727E+03  0.00000000000E+00 0. -1.
          6    1    1    2  501    0 -0.12677488369E+03 -0.91414822661E+02  0.37559578242E+03  0.44168397379E+03  0.17200000000E+03 0. -1.
         -6    1    1    2    0  503  0.12677488369E+03  0.91414822661E+02  0.42197056394E+02  0.23620569956E+03  0.17200000000E+03 0. -1.
</event>
<event>
 4    1  0.5701701E+000  0.2833447E+03  0.7818608E-02  0.1093876E+00
         21   -1    0    0  503  502  0.00000000000E+00  0.00000000000E+00  0.64363300721E+02  0.64363300721E+02  0.00000000000E+00 0. -1.
         21   -1    0    0  501  503 -0.00000000000E+00 -0.00000000000E+00 -0.14937129444E+04  0.14937129444E+04  0.00000000000E+00 0.  1.
          6    1    1    2  501    0  0.10045351296E+02 -0.22494284814E+03 -0.10310513034E+04  0.10692759159E+04  0.17200000000E+03 0.  1.
         -6    1    1    2    0  502 -0.10045351296E+02  0.22494284814E+03 -0.39829834030E+03  0.48880032928E+03  0.17200000000E+03 0. -1.
</event>
<event>
 4    1  0.5701701E+000  0.1982528E+03  0.7818608E-02  0.1151222E+00
         21   -1    0    0  501  502  0.00000000000E+00  0.00000000000E+00  0.15633864735E+03  0.15633864735E+03  0.00000000000E+00 0.  1.
         21   -1    0    0  502  503 -0.00000000000E+00 -0.00000000000E+00 -0.32980738903E+03  0.32980738903E+03  0.00000000000E+00 0.  1.
          6    1    1    2  501    0  0.98588849015E+02 -0.63521119044E+00  0.31780793074E+02  0.20078392229E+03  0.17200000000E+03 0.  1.
         -6    1    1    2    0  503 -0.98588849015E+02  0.63521119044E+00 -0.20524953475E+03  0.28536211409E+03  0.17200000000E+03 0.  1.
</event>
<event>
 4    1  0.5701701E+000  0.2540575E+03  0.7818608E-02  0.1110767E+00
         21   -1    0    0  503  502  0.00000000000E+00  0.00000000000E+00  0.59640767222E+03  0.59640767222E+03  0.00000000000E+00 0. -1.
         21   -1    0    0  501  503 -0.00000000000E+00 -0.00000000000E+00 -0.35360314348E+03  0.35360314348E+03  0.00000000000E+00 0.  1.
          6    1    1    2  501    0 -0.16540897926E+03  0.87184121723E+02 -0.27429217324E+03  0.37387350508E+03  0.17200000000E+03 0.  1.
         -6    1    1    2    0  502  0.16540897926E+03 -0.87184121723E+02  0.51709670197E+03  0.57613731062E+03  0.17200000000E+03 0. -1.
</event>
<event>
 4    1  0.5701701E+000  0.1837173E+03  0.7818608E-02  0.1164253E+00
         21   -1    0    0  501  502  0.00000000000E+00  0.00000000000E+00  0.22463801621E+02  0.22463801621E+02  0.00000000000E+00 0.  1.
         21   -1    0    0  502  503 -0.00000000000E+00 -0.00000000000E+00 -0.16502373163E+04  0.16502373163E+04  0.00000000000E+00 0. -1.
          6    1    1    2  501    0 -0.63663617136E+02 -0.10722981522E+02 -0.56365138442E+03  0.59283633630E+03  0.17200000000E+03 0.  1.
         -6    1    1    2    0  503  0.63663617136E+02  0.10722981522E+02 -0.10641221303E+04  0.10798647816E+04  0.17200000000E+03 0. -1.
</event>
<event>
 4    1  0.5701701E+000  0.3382142E+03  0.7818608E-02  0.1067559E+00
         21   -1    0    0  503  502  0.00000000000E+00  0.00000000000E+00  0.21148568679E+03  0.21148568679E+03  0.00000000000E+00 0. -1.
         21   -1    0    0  501  503 -0.00000000000E+00 -0.00000000000E+00 -0.56615867582E+03  0.56615867582E+03  0.00000000000E+00 0. -1.
          6    1    1    2  501    0  0.26452649043E+03 -0.12178094173E+03 -0.95180460919E+02  0.35135193474E+03  0.17200000000E+03 0. -1.
         -6    1    1    2    0  502 -0.26452649043E+03  0.12178094173E+03 -0.25949252811E+03  0.42629242786E+03  0.17200000000E+03 0. -1.
</event>
<event>
 4    1  0.5701701E+000  0.2114742E+03  0.7818608E-02  0.1140404E+00
         21   -1    0    0  501  502  0.00000000000E+00  0.00000000000E+00  0.92146434444E+03  0.92146434444E+03  0.00000000000E+00 0. -1.
         21   -1    0    0  502  503 -0.00000000000E+00 -0.00000000000E+00 -0.50018764702E+02  0.50018764702E+02  0.00000000000E+00 0. -1.
          6    1    1    2  501    0  0.11800038446E+03  0.34831428578E+02  0.51944317599E+03  0.56084091526E+03  0.17200000000E+03 0. -1.
         -6    1    1    2    0  503 -0.11800038446E+03 -0.34831428578E+02  0.35200240376E+03  0.41064219389E+03  0.17200000000E+03 0. -1.
</event>
<event>
 4    1  0.5701701E+000  0.2198386E+03  0.7818608E-02  0.1134003E+00
         21   -1    0    0  503  502  0.00000000000E+00  0.00000000000E+00  0.12944167980E+04  0.12944167980E+04  0.00000000000E+00 0. -1.
         21   -1    0    0  501  503 -0.00000000000E+00 -0.00000000000E+00 -0.37355492078E+02  0.37355492078E+02  0.00000000000E+00 0.  1.
          6    1    1    2  501    0 -0.13659453616E+03 -0.93248834520E+01  0.61352476537E+03  0.65172207150E+03  0.17200000000E+03 0. -1.
         -6    1    1    2    0  502  0.13659453616E+03  0.93248834520E+01  0.64353654055E+03  0.68005021857E+03  0.17200000000E+03 0.  1.
</event>
<event>
 4    1  0.5701701E+000  0.1958651E+03  0.7818608E-02  0.1153275E+00
         21   -1    0    0  501  502  0.00000000000E+00  0.00000000000E+00  0.41712945980E+03  0.41712945980E+03  0.00000000000E+00 0. -1.
         21   -1    0    0  502  503 -0.00000000000E+00 -0.00000000000E+00 -0.13905551984E+03  0.13905551984E+03  0.00000000000E+00 0. -1.
          6    1    1    2  501    0 -0.81984534758E+02  0.45361769491E+02  0.30086043943E+03  0.35899882742E+03  0.17200000000E+03 0. -1.
         -6    1    1    2    0  503  0.81984534758E+02 -0.45361769491E+02 -0.22786499470E+02  0.19718615222E+03  0.17200000000E+03 0. -1.
</event>
<event>
 4    1  0.5701701E+000  0.2244786E+03  0.7818608E-02  0.1130587E+00
         21   -1    0    0  501  502  0.00000000000E+00  0.00000000000E+00  0.24394677864E+03  0.24394677864E+03  0.00000000000E+00 0.  1.
         21   -1    0    0  502  503 -0.00000000000E+00 -0.00000000000E+00 -0.20891937334E+03  0.20891937334E+03  0.00000000000E+00 0. -1.
          6    1    1    2  501    0  0.11840181185E+03 -0.82387140484E+02  0.41556086208E+02  0.22829265925E+03  0.17200000000E+03 0. -1.
         -6    1    1    2    0  503 -0.11840181185E+03  0.82387140484E+02 -0.65286809052E+01  0.22457349274E+03  0.17200000000E+03 0.  1.
</event>
<event>
 4    1  0.5701701E+000  0.2432514E+03  0.7818608E-02  0.1117646E+00
         21   -1    0    0  501  502  0.00000000000E+00  0.00000000000E+00  0.90049598013E+03  0.90049598013E+03  0.00000000000E+00 0.  1.
         21   -1    0    0  502  503 -0.00000000000E+00 -0.00000000000E+00 -0.19719079255E+03  0.19719079255E+03  0.00000000000E+00 0. -1.
          6    1    1    2  501    0  0.16090226038E+03  0.60808647086E+02  0.79981656455E+03  0.83598909435E+03  0.17200000000E+03 0.  1.
         -6    1    1    2    0  503 -0.16090226038E+03 -0.60808647086E+02 -0.96511376967E+02  0.26169767832E+03  0.17200000000E+03 0. -1.
</event>
<event>
 4    1  0.5701701E+000  0.2355368E+03  0.7818608E-02  0.1122802E+00
         21   -1    0    0  503  502  0.00000000000E+00  0.00000000000E+00  0.22286174658E+04  0.22286174658E+04  0.00000000000E+00 0.  1.
         21   -1    0    0  501  503 -0.00000000000E+00 -0.00000000000E+00 -0.26515895811E+02  0.26515895811E+02  0.00000000000E+00 0.  1.
          6    1    1    2  501    0 -0.15073286393E+03  0.56330950489E+02  0.82211867277E+03  0.85519394547E+03  0.17200000000E+03 0.  1.
         -6    1    1    2    0  502  0.15073286393E+03 -0.56330950489E+02  0.13799828972E+04  0.13999394161E+04  0.17200000000E+03 0.  1.
</event>
<event>
 4    1  0.5701701E+000  0.2872165E+03  0.7818608E-02  0.1091811E+00
         21   -1    0    0  503  502  0.00000000000E+00  0.00000000000E+00  0.53333933562E+03  0.53333933562E+03  0.00000000000E+00 0.  1.
         21   -1    0    0  501  503 -0.00000000000E+00 -0.00000000000E+00 -0.74948279297E+03  0.74948279297E+03  0.00000000000E+00 0.  1.
          6    1    1    2  501    0 -0.12367275553E+03  0.19394420824E+03 -0.67947746090E+03  0.73768755327E+03  0.17200000000E+03 0.  1.
         -6    1    1    2    0  502  0.12367275553E+03 -0.19394420824E+03  0.46333400355E+03  0.54513457533E+03  0.17200000000E+03 0.  1.
</event>
<event>
 4    1  0.5701701E+000  0.2074186E+03  0.7818608E-02  0.1143627E+00
         21   -1    0    0  503  502  0.00000000000E+00  0.00000000000E+00  0.20185491180E+04  0.20185491180E+04  0.00000000000E+00 0.  1.
         21   -1    0    0  501  503 -0.00000000000E+00 -0.00000000000E+00 -0.24289396374E+02  0.24289396374E+02  0.00000000000E+00 0.  1.
          6    1    1    2  501    0  0.48616399245E+02  0.10523740185E+03  0.63960989294E+03  0.67240113041E+03  0.17200000000E+03 0.  1.
         -6    1    1    2    0  502 -0.48616399245E+02 -0.10523740185E+03  0.13546498287E+04  0.13704373839E+04  0.17200000000E+03 0.  1.
</event>
<event>
 4    1  0.5701701E+000  0.1946689E+03  0.7818608E-02  0.1154316E+00
         21   -1    0    0  503  502  0.00000000000E+00  0.00000000000E+00  0.50204983497E+03  0.50204983497E+03  0.00000000000E+00 0. -1.
         21   -1    0    0  501  503 -0.00000000000E+00 -0.00000000000E+00 -0.76325664387E+02  0.76325664387E+02  0.00000000000E+00 0.  1.
          6    1    1    2  501    0  0.53330439100E+02  0.73944953188E+02  0.18246772961E+03  0.26681541220E+03  0.17200000000E+03 0.  1.
         -6    1    1    2    0  502 -0.53330439100E+02 -0.73944953188E+02  0.24325644098E+03  0.31156008716E+03  0.17200000000E+03 0. -1.
</event>
<event>
 4    1  0.5701701E+000  0.1839930E+03  0.7818608E-02  0.1163994E+00
         21   -1    0    0  503  502  0.00000000000E+00  0.00000000000E+00  0.57196207297E+03  0.57196207297E+03  0.00000000000E+00 0. -1.
         21   -1    0    0  501  503 -0.00000000000E+00 -0.00000000000E+00 -0.11875437194E+03  0.11875437194E+03  0.00000000000E+00 0. -1.
          6    1    1    2  501    0  0.52887940938E+02 -0.38370351013E+02 -0.17989565280E+02  0.18487033995E+03  0.17200000000E+03 0. -1.
         -6    1    1    2    0  502 -0.52887940938E+02  0.38370351013E+02  0.47119726631E+03  0.50584610497E+03  0.17200000000E+03 0. -1.
</event>
<event>
 4    1  0.5701701E+000  0.2251950E+03  0.7818608E-02  0.1130068E+00
         21   -1    0    0  503  502  0.00000000000E+00  0.00000000000E+00  0.83183328274E+03  0.83183328274E+03  0.00000000000E+00 0.  1.
         21   -1    0    0  501  503 -0.00000000000E+00 -0.00000000000E+00 -0.15425682698E+03  0.15425682698E+03  0.00000000000E+00 0.  1.
          6    1    1    2  501    0  0.63246975069E+02 -0.13087631860E+03 -0.44641693806E+02  0.22957715795E+03  0.17200000000E+03 0.  1.
         -6    1    1    2    0  502 -0.63246975069E+02  0.13087631860E+03  0.72221814956E+03  0.75651295176E+03  0.17200000000E+03 0.  1.
</event>
<event>
 4    1  0.5701701E+000  0.2766450E+03  0.7818608E-02  0.1097536E+00
         21   -1    0    0  501  502  0.00000000000E+00  0.00000000000E+00  0.31493121262E+03  0.31493121262E+03  0.00000000000E+00 0. -1.
         21   -1    0    0  502  503 -0.00000000000E+00 -0.00000000000E+00 -0.25227940024E+03  0.25227940024E+03  0.00000000000E+00 0.  1.
          6    1    1    2  501    0 -0.18569383123E+03  0.11165242873E+03  0.85678798325E+02  0.28960890919E+03  0.17200000000E+03 0.  1.
         -6    1    1    2    0  503  0.18569383123E+03 -0.11165242873E+03 -0.23026985947E+02  0.27760170367E+03  0.17200000000E+03 0.  1.
</event>
<event>
 4    1  0.5701701E+000  0.2218118E+03  0.7818608E-02  0.1132539E+00
         21   -1    0    0  503  502  0.00000000000E+00  0.00000000000E+00  0.98098055604E+03  0.98098055604E+03  0.00000000000E+00 0. -1.
         21   -1    0    0  501  503 -0.00000000000E+00 -0.00000000000E+00 -0.51193414161E+02  0.51193414161E+02  0.00000000000E+00 0. -1.
          6    1    1    2  501    0 -0.13791243747E+03  0.24426283945E+02  0.39136973135E+03  0.44985636638E+03  0.17200000000E+03 0. -1.
         -6    1    1    2    0  502  0.13791243747E+03 -0.24426283945E+02  0.53841741054E+03  0.58231760383E+03  0.17200000000E+03 0. -1.
</event>
<event>
 4    1  0.5701701E+000  0.2445332E+03  0.7818608E-02  0.1116809E+00
         21   -1    0    0  501  502  0.00000000000E+00  0.00000000000E+00  0.10797883397E+04  0.10797883397E+04  0.00000000000E+00 0. -1.
         21   -1    0    0  502  503 -0.00000000000E+00 -0.00000000000E+00 -0.59018074578E+02  0.59018074578E+02  0.00000000000E+00 0.  1.
          6    1    1    2  501    0 -0.67938473618E+02  0.15999009493E+03  0.36897341269E+03  0.44264867101E+03  0.17200000000E+03 0.  1.
         -6    1    1    2    0  503  0.67938473618E+02 -0.15999009493E+03  0.65179685244E+03  0.69615774327E+03  0.17200000000E+03 0. -1.
</event>
<event>
 4    1  0.5701701E+000  0.1793004E+03  0.7818608E-02  0.1168482E+00
         21   -1    0    0  501  502  0.00000000000E+00  0.00000000000E+00  0.52763665975E+02  0.52763665975E+02  0.00000000000E+00 0.  1.
         21   -1    0    0  502  503 -0.00000000000E+00 -0.00000000000E+00 -0.67991811130E+03  0.67991811130E+03  0.00000000000E+00 0.  1.
          6    1    1    2  501    0  0.34198400683E+02  0.37351036205E+02 -0.19550956676E+03  0.26527838436E+03  0.17200000000E+03 0.  1.
         -6    1    1    2    0  503 -0.34198400683E+02 -0.37351036205E+02 -0.43164487857E+03  0.46740339292E+03  0.17200000000E+03 0.  1.
</event>
<event>
 4    1  0.5701701E+000  0.3997294E+03  0.7818608E-02  0.1043873E+00
         21   -1    0    0  503  502  0.00000000000E+00  0.00000000000E+00  0.58939531351E+03  0.58939531351E+03  0.00000000000E+00 0.  1.
         21   -1    0    0  501  503 -0.00000000000E+00 -0.00000000000E+00 -0.27848288654E+03  0.27848288654E+03  0.00000000000E+00 0. -1.
          6    1    1    2  501    0  0.31020243369E+03 -0.18432057368E+03  0.84789521877E+02  0.40862315985E+03  0.17200000000E+03 0.  1.
         -6    1    1    2    0  502 -0.31020243369E+03  0.18432057368E+03  0.22612290509E+03  0.45925504021E+03  0.17200000000E+03 0. -1.
</event>
<event>
 4    1  0.5701701E+000  0.1995568E+03  0.7818608E-02  0.1150113E+00
         21   -1    0    0  501  502  0.00000000000E+00  0.00000000000E+00  0.39019736867E+02  0.39019736867E+02  0.00000000000E+00 0. -1.
         21   -1    0    0  502  503 -0.00000000000E+00 -0.00000000000E+00 -0.10979256659E+04  0.10979256659E+04  0.00000000000E+00 0. -1.
          6    1    1    2  501    0 -0.95638998622E+02  0.33046993537E+02 -0.37857364675E+03  0.42794967911E+03  0.17200000000E+03 0. -1.
         -6    1    1    2    0  503  0.95638998622E+02 -0.33046993537E+02 -0.68033228224E+03  0.70899572361E+03  0.17200000000E+03 0. -1.
</event>
<event>
 4    1  0.5701701E+000  0.2066314E+03  0.7818608E-02  0.1144262E+00
         21   -1    0    0  501  502  0.00000000000E+00  0.00000000000E+00  0.53680039616E+03  0.53680039616E+03  0.00000000000E+00 0.  1.
         21   -1    0    0  502  503 -0.00000000000E+00 -0.00000000000E+00 -0.92834366598E+02  0.92834366598E+02  0.00000000000E+00 0. -1.
          6    1    1    2  501    0  0.95441362000E+02 -0.63273094139E+02  0.34112239709E+03  0.39882455770E+03  0.17200000000E+03 0.  1.
         -6    1    1    2    0  503 -0.95441362000E+02  0.63273094139E+02  0.10284363247E+03  0.23081020506E+03  0.17200000000E+03 0. -1.
</event>
<event>
 4    1  0.5701701E+000  0.2305068E+03  0.7818608E-02  0.1126284E+00
         21   -1    0    0  501  502  0.00000000000E+00  0.00000000000E+00  0.61495238529E+03  0.61495238529E+03  0.00000000000E+00 0.  1.
         21   -1    0    0  502  503 -0.00000000000E+00 -0.00000000000E+00 -0.10507220206E+03  0.10507220206E+03  0.00000000000E+00 0. -1.
          6    1    1    2  501    0  0.21250969481E+01  0.15344337610E+03  0.40669502630E+03  0.46747644874E+03  0.17200000000E+03 0. -1.
         -6    1    1    2    0  503 -0.21250969481E+01 -0.15344337610E+03  0.10318515693E+03  0.25254813861E+03  0.17200000000E+03 0. -1.
</event>
<event>
 4    1  0.5701701E+000  0.2146292E+03  0.7818608E-02  0.1137952E+00
         21   -1    0    0  503  502  0.00000000000E+00  0.00000000000E+00  0.98410554281E+03  0.98410554281E+03  0.00000000000E+00 0.  1.
         21   -1    0    0  501  503 -0.00000000000E+00 -0.00000000000E+00 -0.56830765719E+02  0.56830765719E+02  0.00000000000E+00 0. -1.
          6    1    1    2  501    0  0.12733847589E+03  0.16327796935E+02  0.24508307560E+03  0.32577814282E+03  0.17200000000E+03 0. -1.
         -6    1    1    2    0  502 -0.12733847589E+03 -0.16327796935E+02  0.68219170150E+03  0.71515816571E+03  0.17200000000E+03 0.  1.
</event>
<event>
 4    1  0.5701701E+000  0.1880806E+03  0.7818608E-02  0.1160204E+00
         21   -1    0    0  501  502  0.00000000000E+00  0.00000000000E+00  0.10179269118E+03  0.10179269118E+03  0.00000000000E+00 0.  1.
         21   -1    0    0  502  503 -0.00000000000E+00 -0.00000000000E+00 -0.62238460595E+03  0.62238460595E+03  0.00000000000E+00 0.  1.
          6    1    1    2  501    0  0.68703184607E+02  0.32713869289E+02 -0.19665770698E+02  0.18910596859E+03  0.17200000000E+03 0.  1.
         -6    1    1    2    0  503 -0.68703184607E+02 -0.32713869289E+02 -0.50092614406E+03  0.53507132854E+03  0.17200000000E+03 0.  1.
</event>
<event>
 4    1  0.5701701E+000  0.2055578E+03  0.7818608E-02  0.1145133E+00
         21   -1    0    0  503  502  0.00000000000E+00  0.00000000000E+00  0.76483721044E+03  0.76483721044E+03  0.00000000000E+00 0.  1.
         21   -1    0    0  501  503 -0.00000000000E+00 -0.00000000000E+00 -0.57896598743E+02  0.57896598743E+02  0.00000000000E+00 0.  1.
          6    1    1    2  501    0  0.11255305647E+03 -0.13491309094E+01  0.26544759826E+03  0.33573268846E+03  0.17200000000E+03 0.  1.
         -6    1    1    2    0  502 -0.11255305647E+03  0.13491309094E+01  0.44149301343E+03  0.48700112072E+03  0.17200000000E+03 0.  1.
</event>
<event>
 4    1  0.5701701E+000  0.2005508E+03  0.7818608E-02  0.1149275E+00
         21   -1    0    0  501  502  0.00000000000E+00  0.00000000000E+00  0.69119517058E+03  0.69119517058E+03  0.00000000000E+00 0.  1.
         21   -1    0    0  502  503 -0.00000000000E+00 -0.00000000000E+00 -0.25972796499E+03  0.25972796499E+03  0.00000000000E+00 0. -1.
          6    1    1    2  501    0  0.90335839317E+02 -0.49760199759E+02  0.63456044264E+03  0.66549800654E+03  0.17200000000E+03 0.  1.
         -6    1    1    2    0  503 -0.90335839317E+02  0.49760199759E+02 -0.20309323705E+03  0.28542512903E+03  0.17200000000E+03 0. -1.
</event>
<event>
 4    1  0.5701701E+000  0.1835365E+03  0.7818608E-02  0.1164424E+00
         21   -1    0    0  501  502  0.00000000000E+00  0.00000000000E+00  0.22132400997E+03  0.22132400997E+03  0.00000000000E+00 0.  1.
         21   -1    0    0  502  503 -0.00000000000E+00 -0.00000000000E+00 -0.18102336407E+03  0.18102336407E+03  0.00000000000E+00 0.  1.
          6    1    1    2  501    0 -0.63957146179E+02 -0.33380392149E+01  0.10042365064E+03  0.20921416936E+03  0.17200000000E+03 0.  1.
         -6    1    1    2    0  503  0.63957146179E+02  0.33380392149E+01 -0.60123004738E+02  0.19313320469E+03  0.17200000000E+03 0.  1.
</event>
<event>
 4    1  0.5701701E+000  0.1743883E+03  0.7818608E-02  0.1173347E+00
         21   -1    0    0  503  502  0.00000000000E+00  0.00000000000E+00  0.68974010651E+02  0.68974010651E+02  0.00000000000E+00 0. -1.
         21   -1    0    0  501  503 -0.00000000000E+00 -0.00000000000E+00 -0.45531330922E+03  0.45531330922E+03  0.00000000000E+00 0. -1.
          6    1    1    2  501    0  0.25807591910E+02 -0.12698299359E+02 -0.23979550202E+03  0.29650153692E+03  0.17200000000E+03 0. -1.
         -6    1    1    2    0  502 -0.25807591910E+02  0.12698299359E+02 -0.14654379655E+03  0.22778578295E+03  0.17200000000E+03 0. -1.
</event>
<event>
 4    1  0.5701701E+000  0.2286432E+03  0.7818608E-02  0.1127598E+00
         21   -1    0    0  501  502  0.00000000000E+00  0.00000000000E+00  0.26227413848E+03  0.26227413848E+03  0.00000000000E+00 0. -1.
         21   -1    0    0  502  503 -0.00000000000E+00 -0.00000000000E+00 -0.84061157130E+03  0.84061157130E+03  0.00000000000E+00 0.  1.
          6    1    1    2  501    0  0.14989194170E+03  0.15037889510E+02  0.19247842018E+03  0.29887401115E+03  0.17200000000E+03 0. -1.
         -6    1    1    2    0  503 -0.14989194170E+03 -0.15037889510E+02 -0.77081585299E+03  0.80401169863E+03  0.17200000000E+03 0.  1.
</event>
<event>
 4    1  0.5701701E+000  0.1876083E+03  0.7818608E-02  0.1160636E+00
         21   -1    0    0  503  502  0.00000000000E+00  0.00000000000E+00  0.15805985522E+03  0.15805985522E+03  0.00000000000E+00 0. -1.
         21   -1    0    0  501  503 -0.00000000000E+00 -0.00000000000E+00 -0.26643984664E+03  0.26643984664E+03  0.00000000000E+00 0. -1.
          6    1    1    2  501    0  0.51277075609E+02  0.54621916334E+02 -0.14020650608E+03  0.23421092326E+03  0.17200000000E+03 0.  1.
         -6    1    1    2    0  502 -0.51277075609E+02 -0.54621916334E+02  0.31826514664E+02  0.19028877860E+03  0.17200000000E+03 0.  1.
</event>
<event>
 4    1  0.5701701E+000  0.1837238E+03  0.7818608E-02  0.1164247E+00
         21   -1    0    0  501  502  0.00000000000E+00  0.00000000000E+00  0.29690618145E+03  0.29690618145E+03  0.00000000000E+00 0.  1.
         21   -1    0    0  502  503 -0.00000000000E+00 -0.00000000000E+00 -0.11571852023E+03  0.11571852023E+03  0.00000000000E+00 0.  1.
          6    1    1    2  501    0 -0.46572481929E+02 -0.44737643402E+02  0.11792798552E+03  0.21831505349E+03  0.17200000000E+03 0. -1.
         -6    1    1    2    0  503  0.46572481929E+02  0.44737643402E+02  0.63259675702E+02  0.19430964819E+03  0.17200000000E+03 0. -1.
</event>
<event>
 4    1  0.5701701E+000  0.2305374E+03  0.7818608E-02  0.1126262E+00
         21   -1    0    0  501  502  0.00000000000E+00  0.00000000000E+00  0.26340672455E+04  0.26340672455E+04  0.00000000000E+00 0.  1.
         21   -1    0    0  502  503 -0.00000000000E+00 -0.00000000000E+00 -0.25086388822E+02  0.25086388822E+02  0.00000000000E+00 0. -1.
          6    1    1    2  501    0 -0.14731394307E+03 -0.43151940473E+02  0.18926694565E+04  0.19066581129E+04  0.17200000000E+03 0.  1.
         -6    1    1    2    0  503  0.14731394307E+03  0.43151940473E+02  0.71631140019E+03  0.75249552147E+03  0.17200000000E+03 0.  1.
</event>
<event>
 4    1  0.5701701E+000  0.1801870E+03  0.7818608E-02  0.1167622E+00
         21   -1    0    0  501  502  0.00000000000E+00  0.00000000000E+00  0.28512195861E+04  0.28512195861E+04  0.00000000000E+00 0. -1.
         21   -1    0    0  502  503 -0.00000000000E+00 -0.00000000000E+00 -0.11449868423E+02  0.11449868423E+02  0.00000000000E+00 0. -1.
          6    1    1    2  501    0 -0.17622429455E+02  0.50722655785E+02  0.13139716310E+04  0.13262687454E+04  0.17200000000E+03 0. -1.
         -6    1    1    2    0  503  0.17622429455E+02 -0.50722655785E+02  0.15257980867E+04  0.15364007092E+04  0.17200000000E+03 0. -1.
</event>
<event>
 4    1  0.5701701E+000  0.2582121E+03  0.7818608E-02  0.1108222E+00
         21   -1    0    0  501  502  0.00000000000E+00  0.00000000000E+00  0.13441686784E+03  0.13441686784E+03  0.00000000000E+00 0. -1.
         21   -1    0    0  502  503 -0.00000000000E+00 -0.00000000000E+00 -0.76099681897E+03  0.76099681897E+03  0.00000000000E+00 0.  1.
          6    1    1    2  501    0  0.13777450638E+03 -0.13456476210E+03 -0.57747368854E+03  0.63257359316E+03  0.17200000000E+03 0.  1.
         -6    1    1    2    0  503 -0.13777450638E+03  0.13456476210E+03 -0.49106262598E+02  0.26284009366E+03  0.17200000000E+03 0. -1.
</event>
<event>
 4    1  0.5701701E+000  0.1815794E+03  0.7818608E-02  0.1166283E+00
         21   -1    0    0  501  502  0.00000000000E+00  0.00000000000E+00  0.10312858937E+03  0.10312858937E+03  0.00000000000E+00 0.  1.
         21   -1    0    0  502  503 -0.00000000000E+00 -0.00000000000E+00 -0.33388866366E+03  0.33388866366E+03  0.00000000000E+00 0.  1.
          6    1    1    2  501    0  0.57753438273E+02 -0.71851015210E+01 -0.70349350994E+02  0.19473088225E+03  0.17200000000E+03 0. -1.
         -6    1    1    2    0  503 -0.57753438273E+02  0.71851015210E+01 -0.16041072330E+03  0.24228637078E+03  0.17200000000E+03 0. -1.
</event>
<event>
 4    1  0.5701701E+000  0.2214142E+03  0.7818608E-02  0.1132833E+00
         21   -1    0    0  501  502  0.00000000000E+00  0.00000000000E+00  0.22564298346E+03  0.22564298346E+03  0.00000000000E+00 0.  1.
         21   -1    0    0  502  503 -0.00000000000E+00 -0.00000000000E+00 -0.77444423194E+03  0.77444423194E+03  0.00000000000E+00 0. -1.
          6    1    1    2  501    0  0.48679867004E+02 -0.13065425376E+03  0.14974048491E+03  0.26729473676E+03  0.17200000000E+03 0.  1.
         -6    1    1    2    0  503 -0.48679867004E+02  0.13065425376E+03 -0.69854173339E+03  0.73279247865E+03  0.17200000000E+03 0. -1.
</event>
<event>
 4    1  0.5701701E+000  0.1729269E+03  0.7818608E-02  0.1174829E+00
         21   -1    0    0  503  502  0.00000000000E+00  0.00000000000E+00  0.39987850490E+02  0.39987850490E+02  0.00000000000E+00 0.  1.
         21   -1    0    0  501  503 -0.00000000000E+00 -0.00000000000E+00 -0.14234954479E+04  0.14234954479E+04  0.00000000000E+00 0.  1.
          6    1    1    2  501    0  0.16116074596E+02 -0.77460253686E+01 -0.11958909312E+04  0.12083289486E+04  0.17200000000E+03 0.  1.
         -6    1    1    2    0  502 -0.16116074596E+02  0.77460253686E+01 -0.18761666627E+03  0.25515434982E+03  0.17200000000E+03 0.  1.
</event>
<event>
 4    1  0.5701701E+000  0.1927339E+03  0.7818608E-02  0.1156018E+00
         21   -1    0    0  501  502  0.00000000000E+00  0.00000000000E+00  0.81363656129E+03  0.81363656129E+03  0.00000000000E+00 0.  1.
         21   -1    0    0  502  503 -0.00000000000E+00 -0.00000000000E+00 -0.51308805330E+02  0.51308805330E+02  0.00000000000E+00 0.  1.
          6    1    1    2  501    0  0.80562471445E+02 -0.32742371929E+02  0.52472694003E+03  0.55900334196E+03  0.17200000000E+03 0.  1.
         -6    1    1    2    0  503 -0.80562471445E+02  0.32742371929E+02  0.23760081592E+03  0.30594202466E+03  0.17200000000E+03 0.  1.
</event>
<event>
 4    1  0.5701701E+000  0.2154115E+03  0.7818608E-02  0.1137351E+00
         21   -1    0    0  503  502  0.00000000000E+00  0.00000000000E+00  0.48849185660E+03  0.48849185660E+03  0.00000000000E+00 0. -1.
         21   -1    0    0  501  503 -0.00000000000E+00 -0.00000000000E+00 -0.11267143930E+03  0.11267143930E+03  0.00000000000E+00 0. -1.
          6    1    1    2  501    0  0.12921560160E+03  0.11019802372E+02  0.68838755823E+02  0.22614349879E+03  0.17200000000E+03 0. -1.
         -6    1    1    2    0  502 -0.12921560160E+03 -0.11019802372E+02  0.30698166148E+03  0.37501979711E+03  0.17200000000E+03 0. -1.
</event>
<event>
 4    1  0.5701701E+000  0.2218789E+03  0.7818608E-02  0.1132490E+00
         21   -1    0    0  501  502  0.00000000000E+00  0.00000000000E+00  0.44112265939E+02  0.44112265939E+02  0.00000000000E+00 0. -1.
         21   -1    0    0  502  503 -0.00000000000E+00 -0.00000000000E+00 -0.15749314095E+04  0.15749314095E+04  0.00000000000E+00 0. -1.
          6    1    1    2  501    0  0.13511045119E+02  0.13951228024E+03 -0.32842953306E+03  0.39635360837E+03  0.17200000000E+03 0. -1.
         -6    1    1    2    0  503 -0.13511045119E+02 -0.13951228024E+03 -0.12023896105E+04  0.12226900671E+04  0.17200000000E+03 0. -1.
</event>
<event>
 4    1  0.5701701E+000  0.1848548E+03  0.7818608E-02  0.1163186E+00
         21   -1    0    0  503  502  0.00000000000E+00  0.00000000000E+00  0.64164228336E+02  0.64164228336E+02  0.00000000000E+00 0.  1.
         21   -1    0    0  501  503 -0.00000000000E+00 -0.00000000000E+00 -0.54011424999E+03  0.54011424999E+03  0.00000000000E+00 0. -1.
          6    1    1    2  501    0 -0.50619523823E+02 -0.44999614678E+02 -0.27370722744E+03  0.33028313289E+03  0.17200000000E+03 0. -1.
         -6    1    1    2    0  502  0.50619523823E+02  0.44999614678E+02 -0.20224279421E+03  0.27399534544E+03  0.17200000000E+03 0. -1.
</event>
<event>
 4    1  0.5701701E+000  0.2506824E+03  0.7818608E-02  0.1112874E+00
         21   -1    0    0  503  502  0.00000000000E+00  0.00000000000E+00  0.17430730151E+04  0.17430730151E+04  0.00000000000E+00 0. -1.
         21   -1    0    0  501  503 -0.00000000000E+00 -0.00000000000E+00 -0.40419048764E+02  0.40419048764E+02  0.00000000000E+00 0.  1.
          6    1    1    2  501    0  0.17483980261E+03  0.51852651701E+02  0.55821663031E+03  0.61192112271E+03  0.17200000000E+03 0.  1.
         -6    1    1    2    0  502 -0.17483980261E+03 -0.51852651701E+02  0.11444373361E+04  0.11715709412E+04  0.17200000000E+03 0. -1.
</event>
<event>
 4    1  0.5701701E+000  0.2312390E+03  0.7818608E-02  0.1125771E+00
         21   -1    0    0  501  502  0.00000000000E+00  0.00000000000E+00  0.15327820581E+03  0.15327820581E+03  0.00000000000E+00 0. -1.
         21   -1    0    0  502  503 -0.00000000000E+00 -0.00000000000E+00 -0.41402781813E+03  0.41402781813E+03  0.00000000000E+00 0.  1.
          6    1    1    2  501    0 -0.11946823551E+03  0.98055262897E+02 -0.17832960867E+02  0.23192565268E+03  0.17200000000E+03 0. -1.
         -6    1    1    2    0  503  0.11946823551E+03 -0.98055262897E+02 -0.24291665145E+03  0.33538037126E+03  0.17200000000E+03 0.  1.
</event>
<event>
 4    1  0.5701701E+000  0.1799154E+03  0.7818608E-02  0.1167885E+00
         21   -1    0    0  503  502  0.00000000000E+00  0.00000000000E+00  0.69179411926E+03  0.69179411926E+03  0.00000000000E+00 0. -1.
         21   -1    0    0  501  503 -0.00000000000E+00 -0.00000000000E+00 -0.48131814625E+02  0.48131814625E+02  0.00000000000E+00 0. -1.
          6    1    1    2  501    0  0.21583191756E+02 -0.48163406708E+02  0.26007629121E+03  0.31624235194E+03  0.17200000000E+03 0.  1.
         -6    1    1    2    0  502 -0.21583191756E+02  0.48163406708E+02  0.38358601343E+03  0.42368358194E+03  0.17200000000E+03 0.  1.
</event>
<event>
 4    1  0.5701701E+000  0.1989376E+03  0.7818608E-02  0.1150638E+00
         21   -1    0    0  501  502  0.00000000000E+00  0.00000000000E+00  0.13100576728E+03  0.13100576728E+03  0.00000000000E+00 0. -1.
         21   -1    0    0  502  503 -0.00000000000E+00 -0.00000000000E+00 -0.39944839786E+03  0.39944839786E+03  0.00000000000E+00 0. -1.
          6    1    1    2  501    0  0.54500866198E+02 -0.83796388204E+02 -0.32840631490E+01  0.19896473095E+03  0.17200000000E+03 0. -1.
         -6    1    1    2    0  503 -0.54500866198E+02  0.83796388204E+02 -0.26515856744E+03  0.33148943419E+03  0.17200000000E+03 0. -1.
</event>
<event>
 4    1  0.5701701E+000  0.2502060E+03  0.7818608E-02  0.1113175E+00
         21   -1    0    0  501  502  0.00000000000E+00  0.00000000000E+00  0.19528444795E+04  0.19528444795E+04  0.00000000000E+00 0. -1.
         21   -1    0    0  502  503 -0.00000000000E+00 -0.00000000000E+00 -0.51764200367E+02  0.51764200367E+02  0.00000000000E+00 0. -1.
          6    1    1    2  501    0  0.76146870064E+02  0.16498694872E+03  0.15689741312E+04  0.15887991892E+04  0.17200000000E+03 0. -1.
         -6    1    1    2    0  503 -0.76146870064E+02 -0.16498694872E+03  0.33210614788E+03  0.41580949067E+03  0.17200000000E+03 0. -1.
</event>
<event>
 4    1  0.5701701E+000  0.1812570E+03  0.7818608E-02  0.1166592E+00
         21   -1    0    0  503  502  0.00000000000E+00  0.00000000000E+00  0.20450759229E+02  0.20450759229E+02  0.00000000000E+00 0. -1.
         21   -1    0    0  501  503 -0.00000000000E+00 -0.00000000000E+00 -0.16141646234E+04  0.16141646234E+04  0.00000000000E+00 0. -1.
          6    1    1    2  501    0 -0.38762239173E+01  0.57053210326E+02 -0.74052853130E+03  0.76238874572E+03  0.17200000000E+03 0. -1.
         -6    1    1    2    0  502  0.38762239173E+01 -0.57053210326E+02 -0.85318533286E+03  0.87222663691E+03  0.17200000000E+03 0. -1.
</event>
<event>
 4    1  0.5701701E+000  0.1755434E+03  0.7818608E-02  0.1172187E+00
         21   -1    0    0  501  502  0.00000000000E+00  0.00000000000E+00  0.89507913778E+03  0.89507913778E+03  0.00000000000E+00 0.  1.
         21   -1    0    0  502  503 -0.00000000000E+00 -0.00000000000E+00 -0.42478369899E+02  0.42478369899E+02  0.00000000000E+00 0.  1.
          6    1    1    2  501    0  0.17554641928E+02 -0.30386283078E+02  0.63038052392E+03  0.65436617929E+03  0.17200000000E+03 0.  1.
         -6    1    1    2    0  503 -0.17554641928E+02  0.30386283078E+02  0.22222024396E+03  0.28319132839E+03  0.17200000000E+03 0.  1.
</event>
<event>
 4    1  0.5701701E+000  0.2376212E+03  0.7818608E-02  0.1121388E+00
         21   -1    0    0  501  502  0.00000000000E+00  0.00000000000E+00  0.71358275537E+03  0.71358275537E+03  0.00000000000E+00 0.  1.
         21   -1    0    0  502  503 -0.00000000000E+00 -0.00000000000E+00 -0.11488588140E+03  0.11488588140E+03  0.00000000000E+00 0. -1.
          6    1    1    2  501    0  0.14070371407E+03 -0.84156264884E+02  0.53045029508E+03  0.58124119574E+03  0.17200000000E+03 0.  1.
         -6    1    1    2    0  503 -0.14070371407E+03  0.84156264884E+02  0.68246578883E+02  0.24722744103E+03  0.17200000000E+03 0. -1.
</event>
<event>
 4    1  0.5701701E+000  0.3058589E+03  0.7818608E-02  0.1082348E+00
         21   -1    0    0  503  502  0.00000000000E+00  0.00000000000E+00  0.17774488676E+04  0.17774488676E+04  0.00000000000E+00 0. -1.
         21   -1    0    0  501  503 -0.00000000000E+00 -0.00000000000E+00 -0.52675936990E+02  0.52675936990E+02  0.00000000000E+00 0.  1.
          6    1    1    2  501    0  0.21759912990E+03  0.12890409933E+03  0.83578324902E+03  0.88999061091E+03  0.17200000000E+03 0.  1.
         -6    1    1    2    0  502 -0.21759912990E+03 -0.12890409933E+03  0.88898968154E+03  0.94013419364E+03  0.17200000000E+03 0. -1.
</event>
<event>
 4    1  0.5701701E+000  0.2083706E+03  0.7818608E-02  0.1142863E+00
         21   -1    0    0  501  502  0.00000000000E+00  0.00000000000E+00  0.58211611624E+02  0.58211611624E+02  0.00000000000E+00 0. -1.
         21   -1    0    0  502  503 -0.00000000000E+00 -0.00000000000E+00 -0.11574671381E+04  0.11574671381E+04  0.00000000000E+00 0. -1.
          6    1    1    2  501    0  0.50457372394E+02 -0.10624679025E+03 -0.18715917448E+03  0.28008370795E+03  0.17200000000E+03 0. -1.
         -6    1    1    2    0  503 -0.50457372394E+02  0.10624679025E+03 -0.91209635202E+03  0.93559504179E+03  0.17200000000E+03 0. -1.
</event>
<event>
 4    1  0.5701701E+000  0.1863555E+03  0.7818608E-02  0.1161790E+00
         21   -1    0    0  501  502  0.00000000000E+00  0.00000000000E+00  0.49888125128E+03  0.49888125128E+03  0.00000000000E+00 0.  1.
         21   -1    0    0  502  503 -0.00000000000E+00 -0.00000000000E+00 -0.70381168953E+02  0.70381168953E+02  0.00000000000E+00 0.  1.
          6    1    1    2  501    0  0.69556480421E+02  0.17500235628E+02  0.24399606933E+03  0.30702189509E+03  0.17200000000E+03 0.  1.
         -6    1    1    2    0  503 -0.69556480421E+02 -0.17500235628E+02  0.18450401300E+03  0.26224052514E+03  0.17200000000E+03 0.  1.
</event>
<event>
 4    1  0.5701701E+000  0.1740869E+03  0.7818608E-02  0.1173652E+00
         21   -1    0    0  503  502  0.00000000000E+00  0.00000000000E+00  0.78300319393E+02  0.78300319393E+02  0.00000000000E+00 0. -1.
         21   -1    0    0  501  503 -0.00000000000E+00 -0.00000000000E+00 -0.69967614045E+03  0.69967614045E+03  0.00000000000E+00 0. -1.
          6    1    1    2  501    0 -0.19450729710E+02 -0.18545151566E+02 -0.57070359954E+03  0.59666477360E+03  0.17200000000E+03 0. -1.
         -6    1    1    2    0  502  0.19450729710E+02  0.18545151566E+02 -0.50672221515E+02  0.18131168624E+03  0.17200000000E+03 0. -1.
</event>
<event>
 4    1  0.5701701E+000  0.1765689E+03  0.7818608E-02  0.1171166E+00
         21   -1    0    0  501  502  0.00000000000E+00  0.00000000000E+00  0.68214423723E+02  0.68214423723E+02  0.00000000000E+00 0. -1.
         21   -1    0    0  502  503 -0.00000000000E+00 -0.00000000000E+00 -0.59356206669E+03  0.59356206669E+03  0.00000000000E+00 0. -1.
          6    1    1    2  501    0  0.34565530652E+02  0.19945078500E+02 -0.10398259441E+03  0.20491208360E+03  0.17200000000E+03 0. -1.
         -6    1    1    2    0  503 -0.34565530652E+02 -0.19945078500E+02 -0.42136504855E+03  0.45686440681E+03  0.17200000000E+03 0. -1.
</event>
<event>
 4    1  0.5701701E+000  0.2120972E+03  0.7818608E-02  0.1139916E+00
         21   -1    0    0  503  502  0.00000000000E+00  0.00000000000E+00  0.58257201930E+03  0.58257201930E+03  0.00000000000E+00 0. -1.
         21   -1    0    0  501  503 -0.00000000000E+00 -0.00000000000E+00 -0.23753720695E+03  0.23753720695E+03  0.00000000000E+00 0. -1.
          6    1    1    2  501    0 -0.12179090626E+03 -0.23836593792E+02 -0.16435720472E+03  0.26832535995E+03  0.17200000000E+03 0. -1.
         -6    1    1    2    0  502  0.12179090626E+03  0.23836593792E+02  0.50939201707E+03  0.55178386629E+03  0.17200000000E+03 0. -1.
</event>
<event>
 4    1  0.5701701E+000  0.1750806E+03  0.7818608E-02  0.1172651E+00
         21   -1    0    0  503  502  0.00000000000E+00  0.00000000000E+00  0.29677214974E+02  0.29677214974E+02  0.00000000000E+00 0.  1.
         21   -1    0    0  501  503 -0.00000000000E+00 -0.00000000000E+00 -0.10781524397E+04  0.10781524397E+04  0.00000000000E+00 0.  1.
          6    1    1    2  501    0  0.95496384935E+01  0.31273441884E+02 -0.63773450696E+03  0.66133087417E+03  0.17200000000E+03 0.  1.
         -6    1    1    2    0  502 -0.95496384935E+01 -0.31273441884E+02 -0.41074071780E+03  0.44649878053E+03  0.17200000000E+03 0.  1.
</event>
<event>
 4    1  0.5701701E+000  0.1904220E+03  0.7818608E-02  0.1158081E+00
         21   -1    0    0  501  502  0.00000000000E+00  0.00000000000E+00  0.24954393841E+03  0.24954393841E+03  0.00000000000E+00 0. -1.
         21   -1    0    0  502  503 -0.00000000000E+00 -0.00000000000E+00 -0.74918309631E+03  0.74918309631E+03  0.00000000000E+00 0. -1.
          6    1    1    2  501    0  0.81080320645E+02 -0.10124527648E+02  0.19850926661E+03  0.27507535947E+03  0.17200000000E+03 0. -1.
         -6    1    1    2    0  503 -0.81080320645E+02  0.10124527648E+02 -0.69814842451E+03  0.72365167526E+03  0.17200000000E+03 0. -1.
</event>
<event>
 4    1  0.5701701E+000  0.2579543E+03  0.7818608E-02  0.1108379E+00
         21   -1    0    0  503  502  0.00000000000E+00  0.00000000000E+00  0.10950549818E+04  0.10950549818E+04  0.00000000000E+00 0.  1.
         21   -1    0    0  501  503 -0.00000000000E+00 -0.00000000000E+00 -0.63709831235E+02  0.63709831235E+02  0.00000000000E+00 0.  1.
          6    1    1    2  501    0 -0.12701237364E+03  0.14430620037E+03  0.39109718993E+03  0.46850553304E+03  0.17200000000E+03 0.  1.
         -6    1    1    2    0  502  0.12701237364E+03 -0.14430620037E+03  0.64024796068E+03  0.69025928003E+03  0.17200000000E+03 0.  1.
</event>
<event>
 4    1  0.5701701E+000  0.1822336E+03  0.7818608E-02  0.1165659E+00
         21   -1    0    0  503  502  0.00000000000E+00  0.00000000000E+00  0.43779422968E+03  0.43779422968E+03  0.00000000000E+00 0. -1.
         21   -1    0    0  501  503 -0.00000000000E+00 -0.00000000000E+00 -0.87731432514E+02  0.87731432514E+02  0.00000000000E+00 0. -1.
          6    1    1    2  501    0  0.34665108746E+02 -0.49228200498E+02  0.78354925870E+02  0.19836476476E+03  0.17200000000E+03 0. -1.
         -6    1    1    2    0  502 -0.34665108746E+02  0.49228200498E+02  0.27170787130E+03  0.32716089744E+03  0.17200000000E+03 0. -1.
</event>
<event>
 4    1  0.5701701E+000  0.2308020E+03  0.7818608E-02  0.1126077E+00
         21   -1    0    0  503  502  0.00000000000E+00  0.00000000000E+00  0.20938798724E+03  0.20938798724E+03  0.00000000000E+00 0.  1.
         21   -1    0    0  501  503 -0.00000000000E+00 -0.00000000000E+00 -0.26544906088E+03  0.26544906088E+03  0.00000000000E+00 0.  1.
          6    1    1    2  501    0 -0.94789589966E+02 -0.12124560493E+03 -0.76455408057E+02  0.24313574913E+03  0.17200000000E+03 0.  1.
         -6    1    1    2    0  502  0.94789589966E+02  0.12124560493E+03  0.20394334418E+02  0.23170129900E+03  0.17200000000E+03 0.  1.
</event>
<event>
 4    1  0.5701701E+000  0.2059310E+03  0.7818608E-02  0.1144829E+00
         21   -1    0    0  503  502  0.00000000000E+00  0.00000000000E+00  0.14563604011E+04  0.14563604011E+04  0.00000000000E+00 0. -1.
         21   -1    0    0  501  503 -0.00000000000E+00 -0.00000000000E+00 -0.40993427642E+02  0.40993427642E+02  0.00000000000E+00 0. -1.
          6    1    1    2  501    0 -0.30177719504E+02 -0.10914624203E+03  0.11106284182E+04  0.11295587989E+04  0.17200000000E+03 0. -1.
         -6    1    1    2    0  502  0.30177719504E+02  0.10914624203E+03  0.30473855528E+03  0.36779502984E+03  0.17200000000E+03 0. -1.
</event>
<event>
 4    1  0.5701701E+000  0.2056896E+03  0.7818608E-02  0.1145026E+00
         21   -1    0    0  501  502  0.00000000000E+00  0.00000000000E+00  0.36316429863E+02  0.36316429863E+02  0.00000000000E+00 0. -1.
         21   -1    0    0  502  503 -0.00000000000E+00 -0.00000000000E+00 -0.18801384247E+04  0.18801384247E+04  0.00000000000E+00 0.  1.
          6    1    1    2  501    0  0.37268408545E+02  0.10646725444E+03 -0.15128903921E+04  0.15268089432E+04  0.17200000000E+03 0.  1.
         -6    1    1    2    0  503 -0.37268408545E+02 -0.10646725444E+03 -0.33093160270E+03  0.38964591132E+03  0.17200000000E+03 0. -1.
</event>
<event>
 4    1  0.5701701E+000  0.1803046E+03  0.7818608E-02  0.1167509E+00
         21   -1    0    0  501  502  0.00000000000E+00  0.00000000000E+00  0.42353384773E+03  0.42353384773E+03  0.00000000000E+00 0. -1.
         21   -1    0    0  502  503 -0.00000000000E+00 -0.00000000000E+00 -0.21357685465E+03  0.21357685465E+03  0.00000000000E+00 0. -1.
          6    1    1    2  501    0 -0.47719979309E+02  0.25466958717E+02  0.35994329259E+03  0.40257786364E+03  0.17200000000E+03 0. -1.
         -6    1    1    2    0  503  0.47719979309E+02 -0.25466958717E+02 -0.14998629950E+03  0.23453283875E+03  0.17200000000E+03 0. -1.
</event>
<event>
 4    1  0.5701701E+000  0.6733010E+03  0.7818608E-02  0.9764013E-01
         21   -1    0    0  503  502  0.00000000000E+00  0.00000000000E+00  0.31114491669E+04  0.31114491669E+04  0.00000000000E+00 0.  1.
         21   -1    0    0  501  503 -0.00000000000E+00 -0.00000000000E+00 -0.16965927979E+03  0.16965927979E+03  0.00000000000E+00 0. -1.
          6    1    1    2  501    0  0.64874254000E+03  0.53696815256E+02  0.85437084724E+03  0.10877884793E+04  0.17200000000E+03 0.  1.
         -6    1    1    2    0  502 -0.64874254000E+03 -0.53696815256E+02  0.20874190398E+04  0.21933199673E+04  0.17200000000E+03 0.  1.
</event>
<event>
 4    1  0.5701701E+000  0.2212283E+03  0.7818608E-02  0.1132971E+00
         21   -1    0    0  501  502  0.00000000000E+00  0.00000000000E+00  0.90138293752E+03  0.90138293752E+03  0.00000000000E+00 0.  1.
         21   -1    0    0  502  503 -0.00000000000E+00 -0.00000000000E+00 -0.13272395192E+03  0.13272395192E+03  0.00000000000E+00 0.  1.
          6    1    1    2  501    0 -0.13688384958E+03 -0.24915498920E+02  0.78179069223E+03  0.81248917336E+03  0.17200000000E+03 0.  1.
         -6    1    1    2    0  503  0.13688384958E+03  0.24915498920E+02 -0.13131706629E+02  0.22161771608E+03  0.17200000000E+03 0.  1.
</event>
<event>
 4    1  0.5701701E+000  0.1741912E+03  0.7818608E-02  0.1173546E+00
         21   -1    0    0  503  502  0.00000000000E+00  0.00000000000E+00  0.10627392532E+04  0.10627392532E+04  0.00000000000E+00 0. -1.
         21   -1    0    0  501  503 -0.00000000000E+00 -0.00000000000E+00 -0.53848542896E+02  0.53848542896E+02  0.00000000000E+00 0. -1.
          6    1    1    2  501    0  0.86576884477E+01  0.26145855127E+02  0.12178567166E+03  0.21254249253E+03  0.17200000000E+03 0. -1.
         -6    1    1    2    0  502 -0.86576884477E+01 -0.26145855127E+02  0.88710503866E+03  0.90404530358E+03  0.17200000000E+03 0. -1.
</event>
<event>
 4    1  0.5701701E+000  0.2119156E+03  0.7818608E-02  0.1140058E+00
         21   -1    0    0  503  502  0.00000000000E+00  0.00000000000E+00  0.54280553613E+03  0.54280553613E+03  0.00000000000E+00 0. -1.
         21   -1    0    0  501  503 -0.00000000000E+00 -0.00000000000E+00 -0.13646743345E+03  0.13646743345E+03  0.00000000000E+00 0.  1.
          6    1    1    2  501    0 -0.11236922314E+03 -0.51936434759E+02 -0.99507932350E+01  0.21214913115E+03  0.17200000000E+03 0.  1.
         -6    1    1    2    0  502  0.11236922314E+03  0.51936434759E+02  0.41628889591E+03  0.46712383842E+03  0.17200000000E+03 0. -1.
</event>
<event>
 4    1  0.5701701E+000  0.1784720E+03  0.7818608E-02  0.1169290E+00
         21   -1    0    0  503  502  0.00000000000E+00  0.00000000000E+00  0.26960075385E+02  0.26960075385E+02  0.00000000000E+00 0. -1.
         21   -1    0    0  501  503 -0.00000000000E+00 -0.00000000000E+00 -0.13260255789E+04  0.13260255789E+04  0.00000000000E+00 0. -1.
          6    1    1    2  501    0 -0.33004498233E+02  0.34336141687E+02 -0.87289962023E+03  0.89095791962E+03  0.17200000000E+03 0. -1.
         -6    1    1    2    0  502  0.33004498233E+02 -0.34336141687E+02 -0.42616588331E+03  0.46202773470E+03  0.17200000000E+03 0. -1.
</event>
<event>
 4    1  0.5701701E+000  0.1763974E+03  0.7818608E-02  0.1171336E+00
         21   -1    0    0  503  502  0.00000000000E+00  0.00000000000E+00  0.34272194608E+02  0.34272194608E+02  0.00000000000E+00 0. -1.
         21   -1    0    0  501  503 -0.00000000000E+00 -0.00000000000E+00 -0.90819186195E+03  0.90819186195E+03  0.00000000000E+00 0. -1.
          6    1    1    2  501    0 -0.94787212059E+01 -0.37976381599E+02 -0.44526856320E+03  0.47893647292E+03  0.17200000000E+03 0. -1.
         -6    1    1    2    0  502  0.94787212059E+01  0.37976381599E+02 -0.42865110414E+03  0.46352758364E+03  0.17200000000E+03 0. -1.
</event>
<event>
 4    1  0.5701701E+000  0.1982679E+03  0.7818608E-02  0.1151209E+00
         21   -1    0    0  503  502  0.00000000000E+00  0.00000000000E+00  0.48792289624E+02  0.48792289624E+02  0.00000000000E+00 0. -1.
         21   -1    0    0  501  503 -0.00000000000E+00 -0.00000000000E+00 -0.82271232578E+03  0.82271232578E+03  0.00000000000E+00 0. -1.
          6    1    1    2  501    0  0.56761278297E+02 -0.80649346281E+02 -0.32423153670E+03  0.38004769327E+03  0.17200000000E+03 0. -1.
         -6    1    1    2    0  502 -0.56761278297E+02  0.80649346281E+02 -0.44968849945E+03  0.49145692213E+03  0.17200000000E+03 0. -1.
</event>
<event>
 4    1  0.5701701E+000  0.2023505E+03  0.7818608E-02  0.1147771E+00
         21   -1    0    0  501  502  0.00000000000E+00  0.00000000000E+00  0.12644369993E+04  0.12644369993E+04  0.00000000000E+00 0. -1.
         21   -1    0    0  502  503 -0.00000000000E+00 -0.00000000000E+00 -0.34024343858E+02  0.34024343858E+02  0.00000000000E+00 0. -1.
          6    1    1    2  501    0  0.10575506235E+03 -0.13326045130E+02  0.75781998787E+03  0.78437035302E+03  0.17200000000E+03 0. -1.
         -6    1    1    2    0  503 -0.10575506235E+03  0.13326045130E+02  0.47259266755E+03  0.51409099011E+03  0.17200000000E+03 0. -1.
</event>
<event>
 4    1  0.5701701E+000  0.1971794E+03  0.7818608E-02  0.1152141E+00
         21   -1    0    0  501  502  0.00000000000E+00  0.00000000000E+00  0.15259542347E+03  0.15259542347E+03  0.00000000000E+00 0.  1.
         21   -1    0    0  502  503 -0.00000000000E+00 -0.00000000000E+00 -0.93482633323E+03  0.93482633323E+03  0.00000000000E+00 0. -1.
          6    1    1    2  501    0  0.96276646825E+02 -0.51515637273E+01  0.72618322831E+02  0.21012651461E+03  0.17200000000E+03 0.  1.
         -6    1    1    2    0  503 -0.96276646825E+02  0.51515637273E+01 -0.85484923259E+03  0.87729524209E+03  0.17200000000E+03 0. -1.
</event>
<event>
 4    1  0.5701701E+000  0.1805765E+03  0.7818608E-02  0.1167246E+00
         21   -1    0    0  503  502  0.00000000000E+00  0.00000000000E+00  0.54706903356E+03  0.54706903356E+03  0.00000000000E+00 0.  1.
         21   -1    0    0  501  503 -0.00000000000E+00 -0.00000000000E+00 -0.65723402110E+02  0.65723402110E+02  0.00000000000E+00 0.  1.
          6    1    1    2  501    0  0.51110343909E+02  0.20287855542E+02  0.14718512809E+03  0.23296207045E+03  0.17200000000E+03 0.  1.
         -6    1    1    2    0  502 -0.51110343909E+02 -0.20287855542E+02  0.33416050336E+03  0.37983036522E+03  0.17200000000E+03 0.  1.
</event>
<event>
 4    1  0.5701701E+000  0.1905637E+03  0.7818608E-02  0.1157954E+00
         21   -1    0    0  503  502  0.00000000000E+00  0.00000000000E+00  0.45676365923E+03  0.45676365923E+03  0.00000000000E+00 0. -1.
         21   -1    0    0  501  503 -0.00000000000E+00 -0.00000000000E+00 -0.86146788742E+02  0.86146788742E+02  0.00000000000E+00 0. -1.
          6    1    1    2  501    0 -0.63852287695E+02 -0.51511258781E+02  0.10992865854E+03  0.21999735088E+03  0.17200000000E+03 0. -1.
         -6    1    1    2    0  502  0.63852287695E+02  0.51511258781E+02  0.26068821194E+03  0.32291309709E+03  0.17200000000E+03 0. -1.
</event>
<event>
 4    1  0.5701701E+000  0.2378581E+03  0.7818608E-02  0.1121228E+00
         21   -1    0    0  503  502  0.00000000000E+00  0.00000000000E+00  0.29296878051E+03  0.29296878051E+03  0.00000000000E+00 0.  1.
         21   -1    0    0  501  503 -0.00000000000E+00 -0.00000000000E+00 -0.19993381223E+03  0.19993381223E+03  0.00000000000E+00 0. -1.
          6    1    1    2  501    0  0.13260480705E+03  0.96997070361E+02  0.10014895434E+01  0.23786018896E+03  0.17200000000E+03 0. -1.
         -6    1    1    2    0  502 -0.13260480705E+03 -0.96997070361E+02  0.92033478743E+02  0.25504240377E+03  0.17200000000E+03 0.  1.
</event>
<event>
 4    1  0.5701701E+000  0.2025876E+03  0.7818608E-02  0.1147574E+00
         21   -1    0    0  503  502  0.00000000000E+00  0.00000000000E+00  0.82009644599E+03  0.82009644599E+03  0.00000000000E+00 0.  1.
         21   -1    0    0  501  503 -0.00000000000E+00 -0.00000000000E+00 -0.65979005275E+02  0.65979005275E+02  0.00000000000E+00 0.  1.
          6    1    1    2  501    0  0.29025274277E+02 -0.10303044308E+03  0.15933782874E+03  0.25774072712E+03  0.17200000000E+03 0.  1.
         -6    1    1    2    0  502 -0.29025274277E+02  0.10303044308E+03  0.59477961197E+03  0.62833472414E+03  0.17200000000E+03 0.  1.
</event>
<event>
 4    1  0.5701701E+000  0.2227436E+03  0.7818608E-02  0.1131854E+00
         21   -1    0    0  501  502  0.00000000000E+00  0.00000000000E+00  0.11384852724E+03  0.11384852724E+03  0.00000000000E+00 0.  1.
         21   -1    0    0  502  503 -0.00000000000E+00 -0.00000000000E+00 -0.48364247117E+03  0.48364247117E+03  0.00000000000E+00 0.  1.
          6    1    1    2  501    0 -0.93552978366E+02  0.10620058456E+03 -0.90932329707E+02  0.24058971821E+03  0.17200000000E+03 0.  1.
         -6    1    1    2    0  503  0.93552978366E+02 -0.10620058456E+03 -0.27886161422E+03  0.35690128020E+03  0.17200000000E+03 0.  1.
</event>
<event>
 4    1  0.5701701E+000  0.2076595E+03  0.7818608E-02  0.1143433E+00
         21   -1    0    0  503  502  0.00000000000E+00  0.00000000000E+00  0.30059980634E+03  0.30059980634E+03  0.00000000000E+00 0.  1.
         21   -1    0    0  501  503 -0.00000000000E+00 -0.00000000000E+00 -0.31781877196E+03  0.31781877196E+03  0.00000000000E+00 0. -1.
          6    1    1    2  501    0  0.46162125911E+01  0.11626336348E+03 -0.23763884378E+03  0.31558627851E+03  0.17200000000E+03 0. -1.
         -6    1    1    2    0  502 -0.46162125911E+01 -0.11626336348E+03  0.22041987816E+03  0.30283229979E+03  0.17200000000E+03 0.  1.
</event>
<event>
 4    1  0.5701701E+000  0.1739001E+03  0.7818608E-02  0.1173841E+00
         21   -1    0    0  501  502  0.00000000000E+00  0.00000000000E+00  0.10881605370E+03  0.10881605370E+03  0.00000000000E+00 0.  1.
         21   -1    0    0  502  503 -0.00000000000E+00 -0.00000000000E+00 -0.33033767464E+03  0.33033767464E+03  0.00000000000E+00 0.  1.
          6    1    1    2  501    0  0.18929097666E+00  0.25635748951E+02 -0.23286241792E+02  0.17545220578E+03  0.17200000000E+03 0. -1.
         -6    1    1    2    0  503 -0.18929097666E+00 -0.25635748951E+02 -0.19823537915E+03  0.26370152256E+03  0.17200000000E+03 0. -1.
</event>
<event>
 4    1  0.5701701E+000  0.2148327E+03  0.7818608E-02  0.1137795E+00
         21   -1    0    0  503  502  0.00000000000E+00  0.00000000000E+00  0.46753247240E+02  0.46753247240E+02  0.00000000000E+00 0.  1.
         21   -1    0    0  501  503 -0.00000000000E+00 -0.00000000000E+00 -0.98982091524E+03  0.98982091524E+03  0.00000000000E+00 0. -1.
          6    1    1    2  501    0 -0.78473460196E+02 -0.10203438975E+03 -0.49838846705E+03  0.54271923195E+03  0.17200000000E+03 0.  1.
         -6    1    1    2    0  502  0.78473460196E+02  0.10203438975E+03 -0.44467920096E+03  0.49385493053E+03  0.17200000000E+03 0.  1.
</event>
<event>
 4    1  0.5701701E+000  0.2095416E+03  0.7818608E-02  0.1141930E+00
         21   -1    0    0  501  502  0.00000000000E+00  0.00000000000E+00  0.57056013871E+03  0.57056013871E+03  0.00000000000E+00 0.  1.
         21   -1    0    0  502  503 -0.00000000000E+00 -0.00000000000E+00 -0.20415415438E+03  0.20415415438E+03  0.00000000000E+00 0.  1.
          6    1    1    2  501    0  0.67366679468E+02 -0.98921256910E+02  0.48895821799E+03  0.53196599845E+03  0.17200000000E+03 0.  1.
         -6    1    1    2    0  503 -0.67366679468E+02  0.98921256910E+02 -0.12255223367E+03  0.24274829463E+03  0.17200000000E+03 0.  1.
</event>
<event>
 4    1  0.5701701E+000  0.3164570E+03  0.7818608E-02  0.1077292E+00
         21   -1    0    0  503  502  0.00000000000E+00  0.00000000000E+00  0.43775059073E+03  0.43775059073E+03  0.00000000000E+00 0. -1.
         21   -1    0    0  501  503 -0.00000000000E+00 -0.00000000000E+00 -0.28051941307E+03  0.28051941307E+03  0.00000000000E+00 0.  1.
          6    1    1    2  501    0  0.57320843569E+02 -0.25937493587E+03 -0.75632927297E+02  0.32536959931E+03  0.17200000000E+03 0.  1.
         -6    1    1    2    0  502 -0.57320843569E+02  0.25937493587E+03  0.23286410496E+03  0.39290040448E+03  0.17200000000E+03 0. -1.
</event>
<event>
 4    1  0.5701701E+000  0.2283353E+03  0.7818608E-02  0.1127817E+00
         21   -1    0    0  503  502  0.00000000000E+00  0.00000000000E+00  0.10021751764E+04  0.10021751764E+04  0.00000000000E+00 0. -1.
         21   -1    0    0  501  503 -0.00000000000E+00 -0.00000000000E+00 -0.66723352826E+02  0.66723352826E+02  0.00000000000E+00 0. -1.
          6    1    1    2  501    0 -0.85451728358E+02  0.12349498905E+03  0.21687314887E+03  0.31491423102E+03  0.17200000000E+03 0. -1.
         -6    1    1    2    0  502  0.85451728358E+02 -0.12349498905E+03  0.71857867466E+03  0.75398429816E+03  0.17200000000E+03 0. -1.
</event>
<event>
 4    1  0.5701701E+000  0.2688723E+03  0.7818608E-02  0.1101927E+00
         21   -1    0    0  501  502  0.00000000000E+00  0.00000000000E+00  0.87650624616E+03  0.87650624616E+03  0.00000000000E+00 0. -1.
         21   -1    0    0  502  503 -0.00000000000E+00 -0.00000000000E+00 -0.82512160845E+02  0.82512160845E+02  0.00000000000E+00 0. -1.
          6    1    1    2  501    0 -0.17938477208E+03  0.10261294205E+03  0.40678135970E+03  0.48760987165E+03  0.17200000000E+03 0. -1.
         -6    1    1    2    0  503  0.17938477208E+03 -0.10261294205E+03  0.38721272562E+03  0.47140853536E+03  0.17200000000E+03 0. -1.
</event>
<event>
 4    1  0.5701701E+000  0.2265179E+03  0.7818608E-02  0.1129115E+00
         21   -1    0    0  501  502  0.00000000000E+00  0.00000000000E+00  0.69287562583E+03  0.69287562583E+03  0.00000000000E+00 0. -1.
         21   -1    0    0  502  503 -0.00000000000E+00 -0.00000000000E+00 -0.25329630460E+03  0.25329630460E+03  0.00000000000E+00 0. -1.
          6    1    1    2  501    0  0.73930484471E+02 -0.12751720244E+03  0.61775536644E+03  0.65797571856E+03  0.17200000000E+03 0. -1.
         -6    1    1    2    0  503 -0.73930484471E+02  0.12751720244E+03 -0.17817604521E+03  0.28819621187E+03  0.17200000000E+03 0. -1.
</event>
<event>
 4    1  0.5701701E+000  0.2948482E+03  0.7818608E-02  0.1087845E+00
         21   -1    0    0  503  502  0.00000000000E+00  0.00000000000E+00  0.23241740882E+03  0.23241740882E+03  0.00000000000E+00 0.  1.
         21   -1    0    0  501  503 -0.00000000000E+00 -0.00000000000E+00 -0.48611906260E+03  0.48611906260E+03  0.00000000000E+00 0. -1.
          6    1    1    2  501    0  0.74151031926E+02 -0.22771277491E+03 -0.29935215204E+03  0.42017519480E+03  0.17200000000E+03 0. -1.
         -6    1    1    2    0  502 -0.74151031926E+02  0.22771277491E+03  0.45650498258E+02  0.29836127662E+03  0.17200000000E+03 0.  1.
</event>
<event>
 4    1  0.5701701E+000  0.1827152E+03  0.7818608E-02  0.1165201E+00
         21   -1    0    0  501  502  0.00000000000E+00  0.00000000000E+00  0.48035819532E+02  0.48035819532E+02  0.00000000000E+00 0.  1.
         21   -1    0    0  502  503 -0.00000000000E+00 -0.00000000000E+00 -0.69664610396E+03  0.69664610396E+03  0.00000000000E+00 0.  1.
          6    1    1    2  501    0 -0.31057860733E+01  0.61572815460E+02 -0.30620153577E+03  0.35657290702E+03  0.17200000000E+03 0. -1.
         -6    1    1    2    0  503  0.31057860733E+01 -0.61572815460E+02 -0.34240874865E+03  0.38810901647E+03  0.17200000000E+03 0. -1.
</event>
<event>
 4    1  0.5701701E+000  0.1998824E+03  0.7818608E-02  0.1149838E+00
         21   -1    0    0  501  502  0.00000000000E+00  0.00000000000E+00  0.43351509698E+02  0.43351509698E+02  0.00000000000E+00 0. -1.
         21   -1    0    0  502  503 -0.00000000000E+00 -0.00000000000E+00 -0.10355584940E+04  0.10355584940E+04  0.00000000000E+00 0. -1.
          6    1    1    2  501    0 -0.88188777586E+02 -0.50908913271E+02 -0.31715365945E+03  0.37488587816E+03  0.17200000000E+03 0. -1.
         -6    1    1    2    0  503  0.88188777586E+02  0.50908913271E+02 -0.67505332484E+03  0.70402412553E+03  0.17200000000E+03 0. -1.
</event>
<event>
 4    1  0.5701701E+000  0.2325124E+03  0.7818608E-02  0.1124884E+00
         21   -1    0    0  501  502  0.00000000000E+00  0.00000000000E+00  0.14432798094E+04  0.14432798094E+04  0.00000000000E+00 0.  1.
         21   -1    0    0  502  503 -0.00000000000E+00 -0.00000000000E+00 -0.47275491809E+02  0.47275491809E+02  0.00000000000E+00 0.  1.
          6    1    1    2  501    0  0.15411414893E+03  0.26960309324E+02  0.10376318459E+04  0.10633634735E+04  0.17200000000E+03 0.  1.
         -6    1    1    2    0  503 -0.15411414893E+03 -0.26960309324E+02  0.35837247165E+03  0.42719182766E+03  0.17200000000E+03 0.  1.
</event>
<event>
 4    1  0.5701701E+000  0.1924445E+03  0.7818608E-02  0.1156275E+00
         21   -1    0    0  503  502  0.00000000000E+00  0.00000000000E+00  0.79095324557E+02  0.79095324557E+02  0.00000000000E+00 0.  1.
         21   -1    0    0  501  503 -0.00000000000E+00 -0.00000000000E+00 -0.54157416426E+03  0.54157416426E+03  0.00000000000E+00 0.  1.
          6    1    1    2  501    0 -0.56533785778E+02  0.65229056081E+02 -0.34544324822E+03  0.39543132961E+03  0.17200000000E+03 0. -1.
         -6    1    1    2    0  502  0.56533785778E+02 -0.65229056081E+02 -0.11703559148E+03  0.22523815921E+03  0.17200000000E+03 0. -1.
</event>
<event>
 4    1  0.5701701E+000  0.1778089E+03  0.7818608E-02  0.1169941E+00
         21   -1    0    0  503  502  0.00000000000E+00  0.00000000000E+00  0.23402926708E+03  0.23402926708E+03  0.00000000000E+00 0.  1.
         21   -1    0    0  501  503 -0.00000000000E+00 -0.00000000000E+00 -0.16577621226E+03  0.16577621226E+03  0.00000000000E+00 0.  1.
          6    1    1    2  501    0 -0.29884099919E+02  0.33748232583E+02 -0.51873656012E+02  0.18522116191E+03  0.17200000000E+03 0.  1.
         -6    1    1    2    0  502  0.29884099919E+02 -0.33748232583E+02  0.12012671083E+03  0.21458431743E+03  0.17200000000E+03 0.  1.
</event>
<event>
 4    1  0.5701701E+000  0.2424510E+03  0.7818608E-02  0.1118171E+00
         21   -1    0    0  503  502  0.00000000000E+00  0.00000000000E+00  0.97824563524E+03  0.97824563524E+03  0.00000000000E+00 0. -1.
         21   -1    0    0  501  503 -0.00000000000E+00 -0.00000000000E+00 -0.61037060644E+02  0.61037060644E+02  0.00000000000E+00 0.  1.
          6    1    1    2  501    0 -0.14339936071E+03  0.92925296576E+02  0.39386552189E+03  0.46250679641E+03  0.17200000000E+03 0.  1.
         -6    1    1    2    0  502  0.14339936071E+03 -0.92925296576E+02  0.52334305271E+03  0.57677589947E+03  0.17200000000E+03 0.  1.
</event>
<event>
 4    1  0.5701701E+000  0.2017346E+03  0.7818608E-02  0.1148284E+00
         21   -1    0    0  503  502  0.00000000000E+00  0.00000000000E+00  0.41236575478E+03  0.41236575478E+03  0.00000000000E+00 0.  1.
         21   -1    0    0  501  503 -0.00000000000E+00 -0.00000000000E+00 -0.10414485350E+03  0.10414485350E+03  0.00000000000E+00 0.  1.
          6    1    1    2  501    0  0.10513902997E+03 -0.76579985512E+01  0.95012130145E+02  0.22298915991E+03  0.17200000000E+03 0.  1.
         -6    1    1    2    0  502 -0.10513902997E+03  0.76579985512E+01  0.21320877113E+03  0.29352144837E+03  0.17200000000E+03 0.  1.
</event>
<event>
 4    1  0.5701701E+000  0.5340775E+03  0.7818608E-02  0.1005248E+00
         21   -1    0    0  503  502  0.00000000000E+00  0.00000000000E+00  0.75713060641E+03  0.75713060641E+03  0.00000000000E+00 0.  1.
         21   -1    0    0  501  503 -0.00000000000E+00 -0.00000000000E+00 -0.42268789672E+03  0.42268789672E+03  0.00000000000E+00 0. -1.
          6    1    1    2  501    0 -0.14705576613E+03 -0.48376587198E+03 -0.27280677748E+02  0.53477383315E+03  0.17200000000E+03 0. -1.
         -6    1    1    2    0  502  0.14705576613E+03  0.48376587198E+03  0.36172338744E+03  0.64504466998E+03  0.17200000000E+03 0. -1.
</event>
<event>
 4    1  0.5701701E+000  0.1773508E+03  0.7818608E-02  0.1170392E+00
         21   -1    0    0  501  502  0.00000000000E+00  0.00000000000E+00  0.53863572606E+03  0.53863572606E+03  0.00000000000E+00 0.  1.
         21   -1    0    0  502  503 -0.00000000000E+00 -0.00000000000E+00 -0.71005337142E+02  0.71005337142E+02  0.00000000000E+00 0.  1.
          6    1    1    2  501    0  0.25338794078E+02 -0.35032258683E+02  0.36227648625E+03  0.40335786359E+03  0.17200000000E+03 0.  1.
         -6    1    1    2    0  503 -0.25338794078E+02  0.35032258683E+02  0.10535390267E+03  0.20628319961E+03  0.17200000000E+03 0.  1.
</event>
<event>
 4    1  0.5701701E+000  0.3558622E+03  0.7818608E-02  0.1060234E+00
         21   -1    0    0  501  502  0.00000000000E+00  0.00000000000E+00  0.69651703028E+03  0.69651703028E+03  0.00000000000E+00 0. -1.
         21   -1    0    0  502  503 -0.00000000000E+00 -0.00000000000E+00 -0.24805210631E+03  0.24805210631E+03  0.00000000000E+00 0.  1.
          6    1    1    2  501    0 -0.29446694940E+03 -0.10170115046E+03  0.46828304197E+03  0.58815551999E+03  0.17200000000E+03 0. -1.
         -6    1    1    2    0  503  0.29446694940E+03  0.10170115046E+03 -0.19818118000E+02  0.35641361660E+03  0.17200000000E+03 0.  1.
</event>
<event>
 4    1  0.5701701E+000  0.1884225E+03  0.7818608E-02  0.1159892E+00
         21   -1    0    0  503  502  0.00000000000E+00  0.00000000000E+00  0.11060627465E+03  0.11060627465E+03  0.00000000000E+00 0.  1.
         21   -1    0    0  501  503 -0.00000000000E+00 -0.00000000000E+00 -0.41800201802E+03  0.41800201802E+03  0.00000000000E+00 0. -1.
          6    1    1    2  501    0 -0.76304209317E+02  0.98345822390E+01 -0.28102964845E+03  0.33834998844E+03  0.17200000000E+03 0. -1.
         -6    1    1    2    0  502  0.76304209317E+02 -0.98345822390E+01 -0.26366094919E+02  0.19025830423E+03  0.17200000000E+03 0.  1.
</event>
<event>
 4    1  0.5701701E+000  0.1850171E+03  0.7818608E-02  0.1163034E+00
         21   -1    0    0  503  502  0.00000000000E+00  0.00000000000E+00  0.13677016744E+03  0.13677016744E+03  0.00000000000E+00 0.  1.
         21   -1    0    0  501  503 -0.00000000000E+00 -0.00000000000E+00 -0.40686667448E+03  0.40686667448E+03  0.00000000000E+00 0.  1.
          6    1    1    2  501    0 -0.54234757752E+02 -0.41302821647E+02 -0.30367451513E+03  0.35559744538E+03  0.17200000000E+03 0.  1.
         -6    1    1    2    0  502  0.54234757752E+02  0.41302821647E+02  0.33578008080E+02  0.18803939654E+03  0.17200000000E+03 0.  1.
</event>
<event>
 4    1  0.5701701E+000  0.1967976E+03  0.7818608E-02  0.1152469E+00
         21   -1    0    0  501  502  0.00000000000E+00  0.00000000000E+00  0.76540854515E+02  0.76540854515E+02  0.00000000000E+00 0. -1.
         21   -1    0    0  502  503 -0.00000000000E+00 -0.00000000000E+00 -0.11182895197E+04  0.11182895197E+04  0.00000000000E+00 0.  1.
          6    1    1    2  501    0 -0.95561484264E+02  0.36480706664E+01 -0.78816343954E+02  0.21199368332E+03  0.17200000000E+03 0. -1.
         -6    1    1    2    0  503  0.95561484264E+02 -0.36480706664E+01 -0.96293232127E+03  0.98283669093E+03  0.17200000000E+03 0.  1.
</event>
<event>
 4    1  0.5701701E+000  0.1975524E+03  0.7818608E-02  0.1151821E+00
         21   -1    0    0  503  502  0.00000000000E+00  0.00000000000E+00  0.11083921512E+03  0.11083921512E+03  0.00000000000E+00 0. -1.
         21   -1    0    0  501  503 -0.00000000000E+00 -0.00000000000E+00 -0.35259426208E+03  0.35259426208E+03  0.00000000000E+00 0. -1.
          6    1    1    2  501    0 -0.92424913135E+02 -0.30009958677E+02 -0.12951544536E+03  0.23622280325E+03  0.17200000000E+03 0. -1.
         -6    1    1    2    0  502  0.92424913135E+02  0.30009958677E+02 -0.11223960160E+03  0.22721067395E+03  0.17200000000E+03 0. -1.
</event>
<event>
 4    1  0.5701701E+000  0.2479651E+03  0.7818608E-02  0.1114598E+00
         21   -1    0    0  503  502  0.00000000000E+00  0.00000000000E+00  0.19205825848E+03  0.19205825848E+03  0.00000000000E+00 0.  1.
         21   -1    0    0  501  503 -0.00000000000E+00 -0.00000000000E+00 -0.32490280337E+03  0.32490280337E+03  0.00000000000E+00 0.  1.
          6    1    1    2  501    0  0.16028184467E+03 -0.78818921863E+02 -0.35146605525E+02  0.25044355862E+03  0.17200000000E+03 0.  1.
         -6    1    1    2    0  502 -0.16028184467E+03  0.78818921863E+02 -0.97697939370E+02  0.26651750324E+03  0.17200000000E+03 0.  1.
</event>
<event>
 4    1  0.5701701E+000  0.2140607E+03  0.7818608E-02  0.1138390E+00
         21   -1    0    0  501  502  0.00000000000E+00  0.00000000000E+00  0.17503392537E+04  0.17503392537E+04  0.00000000000E+00 0. -1.
         21   -1    0    0  502  503 -0.00000000000E+00 -0.00000000000E+00 -0.26219071411E+02  0.26219071411E+02  0.00000000000E+00 0. -1.
          6    1    1    2  501    0  0.82982458422E+02 -0.96705100466E+02  0.89682754492E+03  0.92202039575E+03  0.17200000000E+03 0. -1.
         -6    1    1    2    0  503 -0.82982458422E+02  0.96705100466E+02  0.82729263736E+03  0.85453792935E+03  0.17200000000E+03 0. -1.
</event>
<event>
 4    1  0.5701701E+000  0.2303391E+03  0.7818608E-02  0.1126401E+00
         21   -1    0    0  503  502  0.00000000000E+00  0.00000000000E+00  0.14792287046E+03  0.14792287046E+03  0.00000000000E+00 0.  1.
         21   -1    0    0  501  503 -0.00000000000E+00 -0.00000000000E+00 -0.50708652332E+03  0.50708652332E+03  0.00000000000E+00 0.  1.
          6    1    1    2  501    0 -0.14776619080E+03  0.40463226525E+02 -0.35676050343E+03  0.42465771705E+03  0.17200000000E+03 0.  1.
         -6    1    1    2    0  502  0.14776619080E+03 -0.40463226525E+02 -0.24031494354E+01  0.23035167673E+03  0.17200000000E+03 0.  1.
</event>
<event>
 4    1  0.5701701E+000  0.1766936E+03  0.7818608E-02  0.1171042E+00
         21   -1    0    0  501  502  0.00000000000E+00  0.00000000000E+00  0.12165792049E+04  0.12165792049E+04  0.00000000000E+00 0.  1.
         21   -1    0    0  502  503 -0.00000000000E+00 -0.00000000000E+00 -0.39171547560E+02  0.39171547560E+02  0.00000000000E+00 0. -1.
          6    1    1    2  501    0  0.27064076585E+02  0.30069553464E+02  0.95742501648E+03  0.97359298707E+03  0.17200000000E+03 0.  1.
         -6    1    1    2    0  503 -0.27064076585E+02 -0.30069553464E+02  0.21998264083E+03  0.28215776536E+03  0.17200000000E+03 0. -1.
</event>
<event>
 4    1  0.5701701E+000  0.3003465E+03  0.7818608E-02  0.1085068E+00
         21   -1    0    0  503  502  0.00000000000E+00  0.00000000000E+00  0.18042317324E+03  0.18042317324E+03  0.00000000000E+00 0.  1.
         21   -1    0    0  501  503 -0.00000000000E+00 -0.00000000000E+00 -0.17441976533E+04  0.17441976533E+04  0.00000000000E+00 0. -1.
          6    1    1    2  501    0  0.89612508782E+02  0.22933298630E+03 -0.15946531415E+04  0.16226911789E+04  0.17200000000E+03 0. -1.
         -6    1    1    2    0  502 -0.89612508782E+02 -0.22933298630E+03  0.30878661539E+02  0.30192964756E+03  0.17200000000E+03 0.  1.
</event>
<event>
 4    1  0.5701701E+000  0.2173376E+03  0.7818608E-02  0.1135884E+00
         21   -1    0    0  501  502  0.00000000000E+00  0.00000000000E+00  0.15572405643E+04  0.15572405643E+04  0.00000000000E+00 0.  1.
         21   -1    0    0  502  503 -0.00000000000E+00 -0.00000000000E+00 -0.32905556098E+02  0.32905556098E+02  0.00000000000E+00 0.  1.
          6    1    1    2  501    0  0.13122775156E+03  0.20758238329E+02  0.53985544473E+03  0.58196179295E+03  0.17200000000E+03 0. -1.
         -6    1    1    2    0  503 -0.13122775156E+03 -0.20758238329E+02  0.98447956347E+03  0.10081843275E+04  0.17200000000E+03 0. -1.
</event>
<event>
 4    1  0.5701701E+000  0.1784555E+03  0.7818608E-02  0.1169306E+00
         21   -1    0    0  503  502  0.00000000000E+00  0.00000000000E+00  0.17441941355E+02  0.17441941355E+02  0.00000000000E+00 0. -1.
         21   -1    0    0  501  503 -0.00000000000E+00 -0.00000000000E+00 -0.21021926933E+04  0.21021926933E+04  0.00000000000E+00 0. -1.
          6    1    1    2  501    0 -0.44987283657E+02 -0.15443902911E+02 -0.14266296344E+04  0.14377477121E+04  0.17200000000E+03 0. -1.
         -6    1    1    2    0  502  0.44987283657E+02  0.15443902911E+02 -0.65812111755E+03  0.68188692258E+03  0.17200000000E+03 0. -1.
</event>
<event>
 4    1  0.5701701E+000  0.1807136E+03  0.7818608E-02  0.1167114E+00
         21   -1    0    0  501  502  0.00000000000E+00  0.00000000000E+00  0.37983307548E+03  0.37983307548E+03  0.00000000000E+00 0.  1.
         21   -1    0    0  502  503 -0.00000000000E+00 -0.00000000000E+00 -0.16306548813E+03  0.16306548813E+03  0.00000000000E+00 0.  1.
          6    1    1    2  501    0  0.10240714875E+02 -0.54484136013E+02  0.29502126295E+03  0.34596956356E+03  0.17200000000E+03 0.  1.
         -6    1    1    2    0  503 -0.10240714875E+02  0.54484136013E+02 -0.78253675599E+02  0.19692900006E+03  0.17200000000E+03 0.  1.
</event>
<event>
 4    1  0.5701701E+000  0.1731166E+03  0.7818608E-02  0.1174636E+00
         21   -1    0    0  503  502  0.00000000000E+00  0.00000000000E+00  0.52601680841E+02  0.52601680841E+02  0.00000000000E+00 0.  1.
         21   -1    0    0  501  503 -0.00000000000E+00 -0.00000000000E+00 -0.73741021723E+03  0.73741021723E+03  0.00000000000E+00 0.  1.
          6    1    1    2  501    0  0.18188852719E+02  0.73830440618E+01 -0.15404998671E+03  0.23173420574E+03  0.17200000000E+03 0.  1.
         -6    1    1    2    0  502 -0.18188852719E+02 -0.73830440618E+01 -0.53075854968E+03  0.55827769233E+03  0.17200000000E+03 0.  1.
</event>
<event>
 4    1  0.5701701E+000  0.1908430E+03  0.7818608E-02  0.1157703E+00
         21   -1    0    0  501  502  0.00000000000E+00  0.00000000000E+00  0.12348026362E+03  0.12348026362E+03  0.00000000000E+00 0. -1.
         21   -1    0    0  502  503 -0.00000000000E+00 -0.00000000000E+00 -0.35521570080E+03  0.35521570080E+03  0.00000000000E+00 0.  1.
          6    1    1    2  501    0 -0.26951393798E+02  0.78170797294E+02 -0.17284538190E+02  0.19162412802E+03  0.17200000000E+03 0. -1.
         -6    1    1    2    0  503  0.26951393798E+02 -0.78170797294E+02 -0.21445089900E+03  0.28707183641E+03  0.17200000000E+03 0.  1.
</event>
<event>
 4    1  0.5701701E+000  0.3057242E+03  0.7818608E-02  0.1082414E+00
         21   -1    0    0  503  502  0.00000000000E+00  0.00000000000E+00  0.17869305976E+03  0.17869305976E+03  0.00000000000E+00 0.  1.
         21   -1    0    0  501  503 -0.00000000000E+00 -0.00000000000E+00 -0.74572030894E+03  0.74572030894E+03  0.00000000000E+00 0.  1.
          6    1    1    2  501    0 -0.18000187116E+03  0.17743336113E+03 -0.53607632166E+03  0.61712648129E+03  0.17200000000E+03 0.  1.
         -6    1    1    2    0  502  0.18000187116E+03 -0.17743336113E+03 -0.30950927520E+02  0.30728688741E+03  0.17200000000E+03 0.  1.
</event>
<event>
 4    1  0.5701701E+000  0.1912026E+03  0.7818608E-02  0.1157381E+00
         21   -1    0    0  503  502  0.00000000000E+00  0.00000000000E+00  0.35648730032E+03  0.35648730032E+03  0.00000000000E+00 0.  1.
         21   -1    0    0  501  503 -0.00000000000E+00 -0.00000000000E+00 -0.25123419028E+03  0.25123419028E+03  0.00000000000E+00 0.  1.
          6    1    1    2  501    0  0.68802067264E+02 -0.47336316559E+02 -0.18113056254E+03  0.26337564810E+03  0.17200000000E+03 0.  1.
         -6    1    1    2    0  502 -0.68802067264E+02  0.47336316559E+02  0.28638367258E+03  0.34434584250E+03  0.17200000000E+03 0.  1.
</event>
<event>
 4    1  0.5701701E+000  0.1958710E+03  0.7818608E-02  0.1153270E+00
         21   -1    0    0  503  502  0.00000000000E+00  0.00000000000E+00  0.98685454656E+02  0.98685454656E+02  0.00000000000E+00 0.  1.
         21   -1    0    0  501  503 -0.00000000000E+00 -0.00000000000E+00 -0.40943351956E+03  0.40943351956E+03  0.00000000000E+00 0. -1.
          6    1    1    2  501    0 -0.85220754060E+02 -0.38972671425E+02 -0.98292068199E+02  0.21915012369E+03  0.17200000000E+03 0.  1.
         -6    1    1    2    0  502  0.85220754060E+02  0.38972671425E+02 -0.21245599671E+03  0.28896885053E+03  0.17200000000E+03 0. -1.
</event>
<event>
 4    1  0.5701701E+000  0.1911931E+03  0.7818608E-02  0.1157390E+00
         21   -1    0    0  501  502  0.00000000000E+00  0.00000000000E+00  0.48120989349E+03  0.48120989349E+03  0.00000000000E+00 0. -1.
         21   -1    0    0  502  503 -0.00000000000E+00 -0.00000000000E+00 -0.21832856658E+03  0.21832856658E+03  0.00000000000E+00 0. -1.
          6    1    1    2  501    0  0.61500934960E+02 -0.56466280761E+02  0.41388099442E+03  0.45590819625E+03  0.17200000000E+03 0. -1.
         -6    1    1    2    0  503 -0.61500934960E+02  0.56466280761E+02 -0.15099966751E+03  0.24363026383E+03  0.17200000000E+03 0. -1.
</event>
<event>
 4    1  0.5701701E+000  0.1901765E+03  0.7818608E-02  0.1158302E+00
         21   -1    0    0  501  502  0.00000000000E+00  0.00000000000E+00  0.19950195125E+03  0.19950195125E+03  0.00000000000E+00 0.  1.
         21   -1    0    0  502  503 -0.00000000000E+00 -0.00000000000E+00 -0.25421767407E+03  0.25421767407E+03  0.00000000000E+00 0.  1.
          6    1    1    2  501    0  0.76144830335E+02  0.28019111351E+02  0.94151539278E+02  0.21220654593E+03  0.17200000000E+03 0. -1.
         -6    1    1    2    0  503 -0.76144830335E+02 -0.28019111351E+02 -0.14886726210E+03  0.24151307938E+03  0.17200000000E+03 0. -1.
</event>
<event>
 4    1  0.5701701E+000  0.2082669E+03  0.7818608E-02  0.1142946E+00
         21   -1    0    0  501  502  0.00000000000E+00  0.00000000000E+00  0.18748739944E+03  0.18748739944E+03  0.00000000000E+00 0. -1.
         21   -1    0    0  502  503 -0.00000000000E+00 -0.00000000000E+00 -0.27442322603E+03  0.27442322603E+03  0.00000000000E+00 0.  1.
          6    1    1    2  501    0  0.46279975402E+02  0.10793168545E+03  0.48032822345E+02  0.21373403302E+03  0.17200000000E+03 0. -1.
         -6    1    1    2    0  503 -0.46279975402E+02 -0.10793168545E+03 -0.13496864893E+03  0.24817659245E+03  0.17200000000E+03 0.  1.
</event>
<event>
 4    1  0.5701701E+000  0.2011575E+03  0.7818608E-02  0.1148766E+00
         21   -1    0    0  501  502  0.00000000000E+00  0.00000000000E+00  0.61136914905E+02  0.61136914905E+02  0.00000000000E+00 0.  1.
         21   -1    0    0  502  503 -0.00000000000E+00 -0.00000000000E+00 -0.92165812749E+03  0.92165812749E+03  0.00000000000E+00 0.  1.
          6    1    1    2  501    0  0.10113709928E+03 -0.25527324733E+02 -0.16936772366E+03  0.26296346320E+03  0.17200000000E+03 0.  1.
         -6    1    1    2    0  503 -0.10113709928E+03  0.25527324733E+02 -0.69115348893E+03  0.71983157920E+03  0.17200000000E+03 0.  1.
</event>
<event>
 4    1  0.5701701E+000  0.1823002E+03  0.7818608E-02  0.1165595E+00
         21   -1    0    0  503  502  0.00000000000E+00  0.00000000000E+00  0.24817588889E+03  0.24817588889E+03  0.00000000000E+00 0.  1.
         21   -1    0    0  501  503 -0.00000000000E+00 -0.00000000000E+00 -0.13883012408E+03  0.13883012408E+03  0.00000000000E+00 0.  1.
          6    1    1    2  501    0  0.54892322689E+02 -0.25223005728E+02  0.18246999390E+02  0.18321113529E+03  0.17200000000E+03 0.  1.
         -6    1    1    2    0  502 -0.54892322689E+02  0.25223005728E+02  0.91098765420E+02  0.20379487768E+03  0.17200000000E+03 0.  1.
</event>
<event>
 4    1  0.5701701E+000  0.1860357E+03  0.7818608E-02  0.1162086E+00
         21   -1    0    0  503  502  0.00000000000E+00  0.00000000000E+00  0.51281470614E+03  0.51281470614E+03  0.00000000000E+00 0. -1.
         21   -1    0    0  501  503 -0.00000000000E+00 -0.00000000000E+00 -0.70104958289E+02  0.70104958289E+02  0.00000000000E+00 0.  1.
          6    1    1    2  501    0  0.64946780397E+02  0.28411399535E+02  0.16505214706E+03  0.24869962436E+03  0.17200000000E+03 0. -1.
         -6    1    1    2    0  502 -0.64946780397E+02 -0.28411399535E+02  0.27765760079E+03  0.33422004007E+03  0.17200000000E+03 0. -1.
</event>
<event>
 4    1  0.5701701E+000  0.2853140E+03  0.7818608E-02  0.1092821E+00
         21   -1    0    0  501  502  0.00000000000E+00  0.00000000000E+00  0.11844401807E+03  0.11844401807E+03  0.00000000000E+00 0. -1.
         21   -1    0    0  502  503 -0.00000000000E+00 -0.00000000000E+00 -0.88058202538E+03  0.88058202538E+03  0.00000000000E+00 0. -1.
          6    1    1    2  501    0  0.22086473885E+03 -0.55125842779E+02 -0.61510420418E+03  0.67805403428E+03  0.17200000000E+03 0. -1.
         -6    1    1    2    0  503 -0.22086473885E+03  0.55125842779E+02 -0.14703380313E+03  0.32097200917E+03  0.17200000000E+03 0. -1.
</event>
<event>
 4    1  0.5701701E+000  0.2006624E+03  0.7818608E-02  0.1149181E+00
         21   -1    0    0  501  502  0.00000000000E+00  0.00000000000E+00  0.48277055119E+02  0.48277055119E+02  0.00000000000E+00 0.  1.
         21   -1    0    0  502  503 -0.00000000000E+00 -0.00000000000E+00 -0.18884859198E+04  0.18884859198E+04  0.00000000000E+00 0.  1.
          6    1    1    2  501    0  0.25207016280E+02  0.10022982144E+03 -0.19650205533E+03  0.28085310844E+03  0.17200000000E+03 0.  1.
         -6    1    1    2    0  503 -0.25207016280E+02 -0.10022982144E+03 -0.16437068094E+04  0.16559098665E+04  0.17200000000E+03 0.  1.
</event>
<event>
 4    1  0.5701701E+000  0.2434578E+03  0.7818608E-02  0.1117511E+00
         21   -1    0    0  503  502  0.00000000000E+00  0.00000000000E+00  0.10765546210E+03  0.10765546210E+03  0.00000000000E+00 0.  1.
         21   -1    0    0  501  503 -0.00000000000E+00 -0.00000000000E+00 -0.58700813010E+03  0.58700813010E+03  0.00000000000E+00 0.  1.
          6    1    1    2  501    0 -0.97718526991E+02 -0.14191122343E+03 -0.32621485881E+03  0.40704771214E+03  0.17200000000E+03 0.  1.
         -6    1    1    2    0  502  0.97718526991E+02  0.14191122343E+03 -0.15313780919E+03  0.28761588005E+03  0.17200000000E+03 0.  1.
</event>
<event>
 4    1  0.5701701E+000  0.2234280E+03  0.7818608E-02  0.1131353E+00
         21   -1    0    0  501  502  0.00000000000E+00  0.00000000000E+00  0.31405827583E+02  0.31405827583E+02  0.00000000000E+00 0. -1.
         21   -1    0    0  502  503 -0.00000000000E+00 -0.00000000000E+00 -0.16959993519E+04  0.16959993519E+04  0.00000000000E+00 0. -1.
          6    1    1    2  501    0 -0.11806764082E+03  0.79975559961E+02 -0.61587909046E+03  0.65515426586E+03  0.17200000000E+03 0. -1.
         -6    1    1    2    0  503  0.11806764082E+03 -0.79975559961E+02 -0.10487144339E+04  0.10722509136E+04  0.17200000000E+03 0. -1.
</event>
<event>
 4    1  0.5701701E+000  0.1847794E+03  0.7818608E-02  0.1163256E+00
         21   -1    0    0  503  502  0.00000000000E+00  0.00000000000E+00  0.30579570153E+03  0.30579570153E+03  0.00000000000E+00 0.  1.
         21   -1    0    0  501  503 -0.00000000000E+00 -0.00000000000E+00 -0.27446130338E+03  0.27446130338E+03  0.00000000000E+00 0.  1.
          6    1    1    2  501    0 -0.33864565136E+01  0.67438650269E+02 -0.20778581955E+03  0.27806183924E+03  0.17200000000E+03 0.  1.
         -6    1    1    2    0  502  0.33864565136E+01 -0.67438650269E+02  0.23912021770E+03  0.30219516566E+03  0.17200000000E+03 0.  1.
</event>
<event>
 4    1  0.5701701E+000  0.1827349E+03  0.7818608E-02  0.1165182E+00
         21   -1    0    0  501  502  0.00000000000E+00  0.00000000000E+00  0.16429713169E+02  0.16429713169E+02  0.00000000000E+00 0.  1.
         21   -1    0    0  502  503 -0.00000000000E+00 -0.00000000000E+00 -0.21678391245E+04  0.21678391245E+04  0.00000000000E+00 0.  1.
          6    1    1    2  501    0 -0.10667924533E+02 -0.60780353525E+02 -0.80274113971E+03  0.82327722753E+03  0.17200000000E+03 0.  1.
         -6    1    1    2    0  503  0.10667924533E+02  0.60780353525E+02 -0.13486682716E+04  0.13609916101E+04  0.17200000000E+03 0.  1.
</event>
<event>
 4    1  0.5701701E+000  0.2051766E+03  0.7818608E-02  0.1145444E+00
         21   -1    0    0  501  502  0.00000000000E+00  0.00000000000E+00  0.19123326209E+04  0.19123326209E+04  0.00000000000E+00 0. -1.
         21   -1    0    0  502  503 -0.00000000000E+00 -0.00000000000E+00 -0.86033166292E+02  0.86033166292E+02  0.00000000000E+00 0. -1.
          6    1    1    2  501    0  0.10964249009E+03  0.22179806459E+02  0.17750722589E+04  0.17868908595E+04  0.17200000000E+03 0. -1.
         -6    1    1    2    0  503 -0.10964249009E+03 -0.22179806459E+02  0.51227195665E+02  0.21147492765E+03  0.17200000000E+03 0. -1.
</event>
<event>
 4    1  0.5701701E+000  0.1980235E+03  0.7818608E-02  0.1151417E+00
         21   -1    0    0  501  502  0.00000000000E+00  0.00000000000E+00  0.34666010077E+03  0.34666010077E+03  0.00000000000E+00 0.  1.
         21   -1    0    0  502  503 -0.00000000000E+00 -0.00000000000E+00 -0.21085996678E+03  0.21085996678E+03  0.00000000000E+00 0.  1.
          6    1    1    2  501    0 -0.26793416950E+02 -0.94400347510E+02  0.25769086886E+03  0.32498907166E+03  0.17200000000E+03 0.  1.
         -6    1    1    2    0  503  0.26793416950E+02  0.94400347510E+02 -0.12189073487E+03  0.23253099589E+03  0.17200000000E+03 0.  1.
</event>
<event>
 4    1  0.5701701E+000  0.5169478E+03  0.7818608E-02  0.1009448E+00
         21   -1    0    0  503  502  0.00000000000E+00  0.00000000000E+00  0.14036866964E+04  0.14036866964E+04  0.00000000000E+00 0. -1.
         21   -1    0    0  501  503 -0.00000000000E+00 -0.00000000000E+00 -0.25195796024E+03  0.25195796024E+03  0.00000000000E+00 0.  1.
          6    1    1    2  501    0 -0.48723343875E+03 -0.15956679914E+02  0.16661990347E+03  0.54313647613E+03  0.17200000000E+03 0.  1.
         -6    1    1    2    0  502  0.48723343875E+03  0.15956679914E+02  0.98510883269E+03  0.11125081805E+04  0.17200000000E+03 0. -1.
</event>
<event>
 4    1  0.5701701E+000  0.1825794E+03  0.7818608E-02  0.1165330E+00
         21   -1    0    0  503  502  0.00000000000E+00  0.00000000000E+00  0.46459075878E+03  0.46459075878E+03  0.00000000000E+00 0. -1.
         21   -1    0    0  501  503 -0.00000000000E+00 -0.00000000000E+00 -0.10337732891E+03  0.10337732891E+03  0.00000000000E+00 0. -1.
          6    1    1    2  501    0 -0.48181885179E+02 -0.37811829645E+02  0.23534233063E+02  0.18408989284E+03  0.17200000000E+03 0. -1.
         -6    1    1    2    0  502  0.48181885179E+02  0.37811829645E+02  0.33767919681E+03  0.38387819485E+03  0.17200000000E+03 0. -1.
</event>
<event>
 4    1  0.5701701E+000  0.2987979E+03  0.7818608E-02  0.1085843E+00
         21   -1    0    0  503  502  0.00000000000E+00  0.00000000000E+00  0.87338120933E+02  0.87338120933E+02  0.00000000000E+00 0.  1.
         21   -1    0    0  501  503 -0.00000000000E+00 -0.00000000000E+00 -0.12156643043E+04  0.12156643043E+04  0.00000000000E+00 0. -1.
          6    1    1    2  501    0 -0.89007103364E+02  0.22753882258E+03 -0.82404036101E+03  0.87654018550E+03  0.17200000000E+03 0. -1.
         -6    1    1    2    0  502  0.89007103364E+02 -0.22753882258E+03 -0.30428582236E+03  0.42646223973E+03  0.17200000000E+03 0.  1.
</event>
<event>
 4    1  0.5701701E+000  0.1751185E+03  0.7818608E-02  0.1172613E+00
         21   -1    0    0  503  502  0.00000000000E+00  0.00000000000E+00  0.10390797595E+04  0.10390797595E+04  0.00000000000E+00 0. -1.
         21   -1    0    0  501  503 -0.00000000000E+00 -0.00000000000E+00 -0.29856092204E+02  0.29856092204E+02  0.00000000000E+00 0. -1.
          6    1    1    2  501    0  0.25056635449E+02 -0.21322430340E+02  0.56189637506E+03  0.58855247627E+03  0.17200000000E+03 0. -1.
         -6    1    1    2    0  502 -0.25056635449E+02  0.21322430340E+02  0.44732729222E+03  0.48038337542E+03  0.17200000000E+03 0. -1.
</event>
<event>
 4    1  0.5701701E+000  0.1794966E+03  0.7818608E-02  0.1168291E+00
         21   -1    0    0  501  502  0.00000000000E+00  0.00000000000E+00  0.52990052720E+03  0.52990052720E+03  0.00000000000E+00 0.  1.
         21   -1    0    0  502  503 -0.00000000000E+00 -0.00000000000E+00 -0.75377199162E+03  0.75377199162E+03  0.00000000000E+00 0.  1.
          6    1    1    2  501    0  0.25560542371E+02  0.44516195969E+02  0.50346987897E+03  0.53451001119E+03  0.17200000000E+03 0.  1.
         -6    1    1    2    0  503 -0.25560542371E+02 -0.44516195969E+02 -0.72734134339E+03  0.74916250763E+03  0.17200000000E+03 0.  1.
</event>
<event>
 4    1  0.5701701E+000  0.1775211E+03  0.7818608E-02  0.1170224E+00
         21   -1    0    0  501  502  0.00000000000E+00  0.00000000000E+00  0.25520274887E+02  0.25520274887E+02  0.00000000000E+00 0.  1.
         21   -1    0    0  502  503 -0.00000000000E+00 -0.00000000000E+00 -0.18572079526E+04  0.18572079526E+04  0.00000000000E+00 0.  1.
          6    1    1    2  501    0 -0.32162413863E+02 -0.29921684182E+02 -0.37090562283E+03  0.41119911125E+03  0.17200000000E+03 0.  1.
         -6    1    1    2    0  503  0.32162413863E+02  0.29921684182E+02 -0.14607820549E+04  0.14715291163E+04  0.17200000000E+03 0.  1.
</event>
<event>
 4    1  0.5701701E+000  0.1754345E+03  0.7818608E-02  0.1172296E+00
         21   -1    0    0  503  502  0.00000000000E+00  0.00000000000E+00  0.83382737454E+02  0.83382737454E+02  0.00000000000E+00 0. -1.
         21   -1    0    0  501  503 -0.00000000000E+00 -0.00000000000E+00 -0.49396124538E+03  0.49396124538E+03  0.00000000000E+00 0. -1.
          6    1    1    2  501    0  0.23405744271E+02  0.25405707811E+02 -0.35041926304E+03  0.39188128146E+03  0.17200000000E+03 0. -1.
         -6    1    1    2    0  502 -0.23405744271E+02 -0.25405707811E+02 -0.60159244891E+02  0.18546270137E+03  0.17200000000E+03 0. -1.
</event>
<event>
 4    1  0.5701701E+000  0.2022920E+03  0.7818608E-02  0.1147820E+00
         21   -1    0    0  503  502  0.00000000000E+00  0.00000000000E+00  0.10072904271E+03  0.10072904271E+03  0.00000000000E+00 0. -1.
         21   -1    0    0  501  503 -0.00000000000E+00 -0.00000000000E+00 -0.17988338673E+04  0.17988338673E+04  0.00000000000E+00 0. -1.
          6    1    1    2  501    0 -0.59941058328E+02  0.88006414965E+02 -0.16847275201E+04  0.16968290652E+04  0.17200000000E+03 0. -1.
         -6    1    1    2    0  502  0.59941058328E+02 -0.88006414965E+02 -0.13377304486E+02  0.20273384479E+03  0.17200000000E+03 0. -1.
</event>
<event>
 4    1  0.5701701E+000  0.1844072E+03  0.7818608E-02  0.1163605E+00
         21   -1    0    0  501  502  0.00000000000E+00  0.00000000000E+00  0.18230501932E+03  0.18230501932E+03  0.00000000000E+00 0.  1.
         21   -1    0    0  502  503 -0.00000000000E+00 -0.00000000000E+00 -0.37145746916E+03  0.37145746916E+03  0.00000000000E+00 0.  1.
          6    1    1    2  501    0  0.63467301513E+02  0.19847006206E+02  0.10078372596E+03  0.21015080641E+03  0.17200000000E+03 0.  1.
         -6    1    1    2    0  503 -0.63467301513E+02 -0.19847006206E+02 -0.28993617580E+03  0.34361168207E+03  0.17200000000E+03 0.  1.
</event>
<event>
 4    1  0.5701701E+000  0.1980990E+03  0.7818608E-02  0.1151353E+00
         21   -1    0    0  501  502  0.00000000000E+00  0.00000000000E+00  0.33268703219E+03  0.33268703219E+03  0.00000000000E+00 0. -1.
         21   -1    0    0  502  503 -0.00000000000E+00 -0.00000000000E+00 -0.14687022070E+03  0.14687022070E+03  0.00000000000E+00 0.  1.
          6    1    1    2  501    0 -0.36846315618E+02 -0.91112968741E+02  0.19929366348E+03  0.28100033514E+03  0.17200000000E+03 0.  1.
         -6    1    1    2    0  503  0.36846315618E+02  0.91112968741E+02 -0.13476851982E+02  0.19855691775E+03  0.17200000000E+03 0.  1.
</event>
<event>
 4    1  0.5701701E+000  0.2153757E+03  0.7818608E-02  0.1137378E+00
         21   -1    0    0  501  502  0.00000000000E+00  0.00000000000E+00  0.13017053949E+03  0.13017053949E+03  0.00000000000E+00 0.  1.
         21   -1    0    0  502  503 -0.00000000000E+00 -0.00000000000E+00 -0.40538842028E+03  0.40538842028E+03  0.00000000000E+00 0. -1.
          6    1    1    2  501    0 -0.18143174538E+02  0.12834912820E+03 -0.44477527249E+02  0.21992026719E+03  0.17200000000E+03 0.  1.
         -6    1    1    2    0  503  0.18143174538E+02 -0.12834912820E+03 -0.23074035354E+03  0.31563869257E+03  0.17200000000E+03 0. -1.
</event>
<event>
 4    1  0.5701701E+000  0.1875735E+03  0.7818608E-02  0.1160668E+00
         21   -1    0    0  503  502  0.00000000000E+00  0.00000000000E+00  0.51306979782E+02  0.51306979782E+02  0.00000000000E+00 0.  1.
         21   -1    0    0  501  503 -0.00000000000E+00 -0.00000000000E+00 -0.68582580930E+03  0.68582580930E+03  0.00000000000E+00 0.  1.
          6    1    1    2  501    0 -0.66075132900E+02 -0.35126671940E+02 -0.31340685219E+03  0.36525013520E+03  0.17200000000E+03 0. -1.
         -6    1    1    2    0  502  0.66075132900E+02  0.35126671940E+02 -0.32111197733E+03  0.37188265388E+03  0.17200000000E+03 0. -1.
</event>
<event>
 4    1  0.5701701E+000  0.1890972E+03  0.7818608E-02  0.1159278E+00
         21   -1    0    0  501  502  0.00000000000E+00  0.00000000000E+00  0.11315023132E+03  0.11315023132E+03  0.00000000000E+00 0. -1.
         21   -1    0    0  502  503 -0.00000000000E+00 -0.00000000000E+00 -0.65331497176E+03  0.65331497176E+03  0.00000000000E+00 0. -1.
          6    1    1    2  501    0  0.44252369488E+02  0.64926814566E+02  0.52808423456E+01  0.18917095641E+03  0.17200000000E+03 0. -1.
         -6    1    1    2    0  503 -0.44252369488E+02 -0.64926814566E+02 -0.54544558278E+03  0.57729424666E+03  0.17200000000E+03 0. -1.
</event>
<event>
 4    1  0.5701701E+000  0.3466266E+03  0.7818608E-02  0.1064008E+00
         21   -1    0    0  501  502  0.00000000000E+00  0.00000000000E+00  0.14259821586E+04  0.14259821586E+04  0.00000000000E+00 0.  1.
         21   -1    0    0  502  503 -0.00000000000E+00 -0.00000000000E+00 -0.12041247783E+03  0.12041247783E+03  0.00000000000E+00 0. -1.
          6    1    1    2  501    0 -0.26221012640E+03 -0.14768845455E+03  0.10764641127E+04  0.11308956698E+04  0.17200000000E+03 0.  1.
         -6    1    1    2    0  503  0.26221012640E+03  0.14768845455E+03  0.22910556812E+03  0.41549896671E+03  0.17200000000E+03 0. -1.
</event>
<event>
 4    1  0.5701701E+000  0.2548116E+03  0.7818608E-02  0.1110301E+00
         21   -1    0    0  503  502  0.00000000000E+00  0.00000000000E+00  0.15717620066E+03  0.15717620066E+03  0.00000000000E+00 0.  1.
         21   -1    0    0  501  503 -0.00000000000E+00 -0.00000000000E+00 -0.43033631867E+03  0.43033631867E+03  0.00000000000E+00 0. -1.
          6    1    1    2  501    0  0.69217227440E+02  0.17479688546E+03 -0.19537588311E+03  0.32109299501E+03  0.17200000000E+03 0. -1.
         -6    1    1    2    0  502 -0.69217227440E+02 -0.17479688546E+03 -0.77784234903E+02  0.26641952432E+03  0.17200000000E+03 0. -1.
</event>
<event>
 4    1  0.5701701E+000  0.2367754E+03  0.7818608E-02  0.1121960E+00
         21   -1    0    0  503  502  0.00000000000E+00  0.00000000000E+00  0.11753010768E+03  0.11753010768E+03  0.00000000000E+00 0.  1.
         21   -1    0    0  501  503 -0.00000000000E+00 -0.00000000000E+00 -0.57862930883E+03  0.57862930883E+03  0.00000000000E+00 0. -1.
          6    1    1    2  501    0  0.15391360098E+03 -0.52813017037E+02 -0.37642240880E+03  0.44469814614E+03  0.17200000000E+03 0.  1.
         -6    1    1    2    0  502 -0.15391360098E+03  0.52813017037E+02 -0.84676792345E+02  0.25146127037E+03  0.17200000000E+03 0.  1.
</event>
<event>
 4    1  0.5701701E+000  0.1751540E+03  0.7818608E-02  0.1172577E+00
         21   -1    0    0  501  502  0.00000000000E+00  0.00000000000E+00  0.43228454220E+02  0.43228454220E+02  0.00000000000E+00 0.  1.
         21   -1    0    0  502  503 -0.00000000000E+00 -0.00000000000E+00 -0.74833067935E+03  0.74833067935E+03  0.00000000000E+00 0.  1.
          6    1    1    2  501    0 -0.33082312402E+02 -0.70444335767E+00 -0.26261967101E+03  0.31567075765E+03  0.17200000000E+03 0.  1.
         -6    1    1    2    0  503  0.33082312402E+02  0.70444335767E+00 -0.44248255412E+03  0.47588837592E+03  0.17200000000E+03 0.  1.
</event>
<event>
 4    1  0.5701701E+000  0.1922196E+03  0.7818608E-02  0.1156475E+00
         21   -1    0    0  501  502  0.00000000000E+00  0.00000000000E+00  0.58256999189E+02  0.58256999189E+02  0.00000000000E+00 0.  1.
         21   -1    0    0  502  503 -0.00000000000E+00 -0.00000000000E+00 -0.63428770635E+03  0.63428770635E+03  0.00000000000E+00 0.  1.
          6    1    1    2  501    0  0.84597058527E+02  0.14411901248E+02 -0.28472660753E+03  0.34353690667E+03  0.17200000000E+03 0.  1.
         -6    1    1    2    0  503 -0.84597058527E+02 -0.14411901248E+02 -0.29130409963E+03  0.34900779886E+03  0.17200000000E+03 0.  1.
</event>
<event>
 4    1  0.5701701E+000  0.2861210E+03  0.7818608E-02  0.1092392E+00
         21   -1    0    0  501  502  0.00000000000E+00  0.00000000000E+00  0.79562594661E+03  0.79562594661E+03  0.00000000000E+00 0.  1.
         21   -1    0    0  502  503 -0.00000000000E+00 -0.00000000000E+00 -0.14914263913E+03  0.14914263913E+03  0.00000000000E+00 0. -1.
          6    1    1    2  501    0  0.20875599780E+03 -0.93285413044E+02  0.58629475904E+03  0.65238545307E+03  0.17200000000E+03 0.  1.
         -6    1    1    2    0  503 -0.20875599780E+03  0.93285413044E+02  0.60188548443E+02  0.29238313267E+03  0.17200000000E+03 0. -1.
</event>
<event>
 4    1  0.5701701E+000  0.3106538E+03  0.7818608E-02  0.1080033E+00
         21   -1    0    0  501  502  0.00000000000E+00  0.00000000000E+00  0.25127051936E+03  0.25127051936E+03  0.00000000000E+00 0.  1.
         21   -1    0    0  502  503 -0.00000000000E+00 -0.00000000000E+00 -0.40524441164E+03  0.40524441164E+03  0.00000000000E+00 0.  1.
          6    1    1    2  501    0 -0.14045895611E+03 -0.21723966975E+03 -0.19545971794E+01  0.31065996349E+03  0.17200000000E+03 0.  1.
         -6    1    1    2    0  503  0.14045895611E+03  0.21723966975E+03 -0.15201929510E+03  0.34585496751E+03  0.17200000000E+03 0.  1.
</event>
<event>
 4    1  0.5701701E+000  0.2025500E+03  0.7818608E-02  0.1147605E+00
         21   -1    0    0  501  502  0.00000000000E+00  0.00000000000E+00  0.42451930106E+02  0.42451930106E+02  0.00000000000E+00 0. -1.
         21   -1    0    0  502  503 -0.00000000000E+00 -0.00000000000E+00 -0.15686377313E+04  0.15686377313E+04  0.00000000000E+00 0.  1.
          6    1    1    2  501    0  0.10006725959E+03  0.37802651738E+02 -0.26397369198E+03  0.33272902936E+03  0.17200000000E+03 0. -1.
         -6    1    1    2    0  503 -0.10006725959E+03 -0.37802651738E+02 -0.12622121092E+04  0.12783606321E+04  0.17200000000E+03 0.  1.
</event>
<event>
 4    1  0.5701701E+000  0.1726491E+03  0.7818608E-02  0.1175113E+00
         21   -1    0    0  503  502  0.00000000000E+00  0.00000000000E+00  0.20089449771E+03  0.20089449771E+03  0.00000000000E+00 0. -1.
         21   -1    0    0  501  503 -0.00000000000E+00 -0.00000000000E+00 -0.16030178489E+03  0.16030178489E+03  0.00000000000E+00 0. -1.
          6    1    1    2  501    0 -0.15019917726E+01  0.14881339457E+02 -0.28965046300E+02  0.17506194375E+03  0.17200000000E+03 0.  1.
         -6    1    1    2    0  502  0.15019917726E+01 -0.14881339457E+02  0.69557759115E+02  0.18613433884E+03  0.17200000000E+03 0.  1.
</event>
<event>
 4    1  0.5701701E+000  0.2515616E+03  0.7818608E-02  0.1112322E+00
         21   -1    0    0  501  502  0.00000000000E+00  0.00000000000E+00  0.36370431447E+03  0.36370431447E+03  0.00000000000E+00 0. -1.
         21   -1    0    0  502  503 -0.00000000000E+00 -0.00000000000E+00 -0.21076897087E+03  0.21076897087E+03  0.00000000000E+00 0.  1.
          6    1    1    2  501    0  0.18229802242E+03 -0.21602574155E+02  0.19644481610E+03  0.31917676287E+03  0.17200000000E+03 0. -1.
         -6    1    1    2    0  503 -0.18229802242E+03  0.21602574155E+02 -0.43509472487E+02  0.25529652247E+03  0.17200000000E+03 0.  1.
</event>
<event>
 4    1  0.5701701E+000  0.1795221E+03  0.7818608E-02  0.1168266E+00
         21   -1    0    0  501  502  0.00000000000E+00  0.00000000000E+00  0.87150305813E+03  0.87150305813E+03  0.00000000000E+00 0. -1.
         21   -1    0    0  502  503 -0.00000000000E+00 -0.00000000000E+00 -0.99356822954E+02  0.99356822954E+02  0.00000000000E+00 0. -1.
          6    1    1    2  501    0 -0.13375644904E+02  0.49651657327E+02  0.77069969426E+03  0.79133192384E+03  0.17200000000E+03 0. -1.
         -6    1    1    2    0  503  0.13375644904E+02 -0.49651657327E+02  0.14465409151E+01  0.17952795724E+03  0.17200000000E+03 0. -1.
</event>
<event>
 4    1  0.5701701E+000  0.2759178E+03  0.7818608E-02  0.1097940E+00
         21   -1    0    0  503  502  0.00000000000E+00  0.00000000000E+00  0.27187137941E+03  0.27187137941E+03  0.00000000000E+00 0. -1.
         21   -1    0    0  501  503 -0.00000000000E+00 -0.00000000000E+00 -0.30793447700E+03  0.30793447700E+03  0.00000000000E+00 0. -1.
          6    1    1    2  501    0  0.15516044626E+03  0.14990615897E+03  0.69246281575E+02  0.28447437159E+03  0.17200000000E+03 0. -1.
         -6    1    1    2    0  502 -0.15516044626E+03 -0.14990615897E+03 -0.10530937916E+03  0.29533148481E+03  0.17200000000E+03 0. -1.
</event>
<event>
 4    1  0.5701701E+000  0.1800581E+03  0.7818608E-02  0.1167747E+00
         21   -1    0    0  503  502  0.00000000000E+00  0.00000000000E+00  0.54455225214E+03  0.54455225214E+03  0.00000000000E+00 0.  1.
         21   -1    0    0  501  503 -0.00000000000E+00 -0.00000000000E+00 -0.76907421089E+02  0.76907421089E+02  0.00000000000E+00 0.  1.
          6    1    1    2  501    0 -0.53178245052E+02  0.29997161447E+01  0.86147775770E+02  0.19960551925E+03  0.17200000000E+03 0.  1.
         -6    1    1    2    0  502  0.53178245052E+02 -0.29997161447E+01  0.38149705528E+03  0.42185415398E+03  0.17200000000E+03 0.  1.
</event>
<event>
 4    1  0.5701701E+000  0.2245636E+03  0.7818608E-02  0.1130526E+00
         21   -1    0    0  501  502  0.00000000000E+00  0.00000000000E+00  0.32440500169E+02  0.32440500169E+02  0.00000000000E+00 0. -1.
         21   -1    0    0  502  503 -0.00000000000E+00 -0.00000000000E+00 -0.20149665011E+04  0.20149665011E+04  0.00000000000E+00 0. -1.
          6    1    1    2  501    0 -0.76311211505E+02  0.12256177242E+03 -0.14806346826E+04  0.14975673115E+04  0.17200000000E+03 0. -1.
         -6    1    1    2    0  503  0.76311211505E+02 -0.12256177242E+03 -0.50189131827E+03  0.54983968974E+03  0.17200000000E+03 0. -1.
</event>
<event>
 4    1  0.5701701E+000  0.4677649E+03  0.7818608E-02  0.1022553E+00
         21   -1    0    0  503  502  0.00000000000E+00  0.00000000000E+00  0.86894147214E+03  0.86894147214E+03  0.00000000000E+00 0.  1.
         21   -1    0    0  501  503 -0.00000000000E+00 -0.00000000000E+00 -0.36288486578E+03  0.36288486578E+03  0.00000000000E+00 0. -1.
          6    1    1    2  501    0  0.22882122060E+03 -0.36994708457E+03 -0.87734600152E+02  0.47592158645E+03  0.17200000000E+03 0.  1.
         -6    1    1    2    0  502 -0.22882122060E+03  0.36994708457E+03  0.59379120651E+03  0.75590475148E+03  0.17200000000E+03 0.  1.
</event>
<event>
 4    1  0.5701701E+000  0.1947131E+03  0.7818608E-02  0.1154278E+00
         21   -1    0    0  503  502  0.00000000000E+00  0.00000000000E+00  0.12266865559E+03  0.12266865559E+03  0.00000000000E+00 0.  1.
         21   -1    0    0  501  503 -0.00000000000E+00 -0.00000000000E+00 -0.45208556566E+03  0.45208556566E+03  0.00000000000E+00 0.  1.
          6    1    1    2  501    0  0.90891078151E+02  0.82463678533E+01 -0.30741128198E+01  0.19473736375E+03  0.17200000000E+03 0.  1.
         -6    1    1    2    0  502 -0.90891078151E+02 -0.82463678533E+01 -0.32634279725E+03  0.38001685750E+03  0.17200000000E+03 0.  1.
</event>
<event>
 4    1  0.5701701E+000  0.2100988E+03  0.7818608E-02  0.1141488E+00
         21   -1    0    0  503  502  0.00000000000E+00  0.00000000000E+00  0.22713231209E+03  0.22713231209E+03  0.00000000000E+00 0.  1.
         21   -1    0    0  501  503 -0.00000000000E+00 -0.00000000000E+00 -0.48258523015E+03  0.48258523015E+03  0.00000000000E+00 0.  1.
          6    1    1    2  501    0 -0.71088392263E+02  0.97488083181E+02 -0.40197708739E+03  0.45357145486E+03  0.17200000000E+03 0.  1.
         -6    1    1    2    0  502  0.71088392263E+02 -0.97488083181E+02  0.14652416934E+03  0.25614608737E+03  0.17200000000E+03 0.  1.
</event>
<event>
 4    1  0.5701701E+000  0.2023534E+03  0.7818608E-02  0.1147768E+00
         21   -1    0    0  503  502  0.00000000000E+00  0.00000000000E+00  0.13919271513E+04  0.13919271513E+04  0.00000000000E+00 0.  1.
         21   -1    0    0  501  503 -0.00000000000E+00 -0.00000000000E+00 -0.46873475234E+02  0.46873475234E+02  0.00000000000E+00 0. -1.
          6    1    1    2  501    0  0.96580277862E+02 -0.45112685183E+02  0.23351107901E+03  0.30898920443E+03  0.17200000000E+03 0. -1.
         -6    1    1    2    0  502 -0.96580277862E+02  0.45112685183E+02  0.11115425970E+04  0.11298114221E+04  0.17200000000E+03 0.  1.
</event>
<event>
 4    1  0.5701701E+000  0.1807257E+03  0.7818608E-02  0.1167103E+00
         21   -1    0    0  503  502  0.00000000000E+00  0.00000000000E+00  0.11295843114E+04  0.11295843114E+04  0.00000000000E+00 0. -1.
         21   -1    0    0  501  503 -0.00000000000E+00 -0.00000000000E+00 -0.37047294431E+02  0.37047294431E+02  0.00000000000E+00 0. -1.
          6    1    1    2  501    0  0.51958665903E+02 -0.19443852457E+02  0.27297084574E+03  0.32737570005E+03  0.17200000000E+03 0. -1.
         -6    1    1    2    0  502 -0.51958665903E+02  0.19443852457E+02  0.81956617118E+03  0.83925590573E+03  0.17200000000E+03 0. -1.
</event>
<event>
 4    1  0.5701701E+000  0.3236254E+03  0.7818608E-02  0.1073993E+00
         21   -1    0    0  503  502  0.00000000000E+00  0.00000000000E+00  0.47504848221E+03  0.47504848221E+03  0.00000000000E+00 0. -1.
         21   -1    0    0  501  503 -0.00000000000E+00 -0.00000000000E+00 -0.22120921599E+03  0.22120921599E+03  0.00000000000E+00 0.  1.
          6    1    1    2  501    0 -0.18662637473E+03  0.20079838312E+03  0.14705968106E+03  0.35547143936E+03  0.17200000000E+03 0. -1.
         -6    1    1    2    0  502  0.18662637473E+03 -0.20079838312E+03  0.10677958516E+03  0.34078625884E+03  0.17200000000E+03 0.  1.
</event>
<event>
 4    1  0.5701701E+000  0.2083714E+03  0.7818608E-02  0.1142862E+00
         21   -1    0    0  501  502  0.00000000000E+00  0.00000000000E+00  0.21944944082E+03  0.21944944082E+03  0.00000000000E+00 0. -1.
         21   -1    0    0  502  503 -0.00000000000E+00 -0.00000000000E+00 -0.19844684883E+03  0.19844684883E+03  0.00000000000E+00 0. -1.
          6    1    1    2  501    0 -0.79098920663E+02 -0.87051652251E+02 -0.93333805481E+00  0.20837346407E+03  0.17200000000E+03 0. -1.
         -6    1    1    2    0  503  0.79098920663E+02  0.87051652251E+02  0.21935930047E+02  0.20952282557E+03  0.17200000000E+03 0. -1.
</event>
<event>
 4    1  0.5701701E+000  0.1949291E+03  0.7818608E-02  0.1154089E+00
         21   -1    0    0  501  502  0.00000000000E+00  0.00000000000E+00  0.73586901720E+02  0.73586901720E+02  0.00000000000E+00 0. -1.
         21   -1    0    0  502  503 -0.00000000000E+00 -0.00000000000E+00 -0.56075106570E+03  0.56075106570E+03  0.00000000000E+00 0. -1.
          6    1    1    2  501    0  0.90141851632E+02  0.16964569502E+02 -0.33282058610E+03  0.38570311454E+03  0.17200000000E+03 0. -1.
         -6    1    1    2    0  503 -0.90141851632E+02 -0.16964569502E+02 -0.15434357788E+03  0.24863485288E+03  0.17200000000E+03 0. -1.
</event>
<event>
 4    1  0.5701701E+000  0.2097780E+03  0.7818608E-02  0.1141742E+00
         21   -1    0    0  503  502  0.00000000000E+00  0.00000000000E+00  0.13865864432E+03  0.13865864432E+03  0.00000000000E+00 0.  1.
         21   -1    0    0  501  503 -0.00000000000E+00 -0.00000000000E+00 -0.31762190675E+03  0.31762190675E+03  0.00000000000E+00 0.  1.
          6    1    1    2  501    0  0.10275387061E+03  0.62164563217E+02 -0.95842118028E+02  0.23063499829E+03  0.17200000000E+03 0.  1.
         -6    1    1    2    0  502 -0.10275387061E+03 -0.62164563217E+02 -0.83121144402E+02  0.22564555279E+03  0.17200000000E+03 0.  1.
</event>
<event>
 4    1  0.5701701E+000  0.2358077E+03  0.7818608E-02  0.1122618E+00
         21   -1    0    0  501  502  0.00000000000E+00  0.00000000000E+00  0.10017344034E+03  0.10017344034E+03  0.00000000000E+00 0. -1.
         21   -1    0    0  502  503 -0.00000000000E+00 -0.00000000000E+00 -0.55536001967E+03  0.55536001967E+03  0.00000000000E+00 0. -1.
          6    1    1    2  501    0 -0.15977620954E+03 -0.22199847732E+02 -0.22036538591E+03  0.32274784846E+03  0.17200000000E+03 0. -1.
         -6    1    1    2    0  503  0.15977620954E+03  0.22199847732E+02 -0.23482119342E+03  0.33278561155E+03  0.17200000000E+03 0. -1.
</event>
<event>
 4    1  0.5701701E+000  0.2622033E+03  0.7818608E-02  0.1105827E+00
         21   -1    0    0  501  502  0.00000000000E+00  0.00000000000E+00  0.77542607751E+03  0.77542607751E+03  0.00000000000E+00 0.  1.
         21   -1    0    0  502  503 -0.00000000000E+00 -0.00000000000E+00 -0.53590725394E+03  0.53590725394E+03  0.00000000000E+00 0.  1.
          6    1    1    2  501    0 -0.18579413698E+03 -0.68169740810E+02  0.71873802343E+03  0.76507184057E+03  0.17200000000E+03 0.  1.
         -6    1    1    2    0  503  0.18579413698E+03  0.68169740810E+02 -0.47921919987E+03  0.54626149088E+03  0.17200000000E+03 0.  1.
</event>
<event>
 4    1  0.5701701E+000  0.1735031E+03  0.7818608E-02  0.1174243E+00
         21   -1    0    0  503  502  0.00000000000E+00  0.00000000000E+00  0.14510620546E+03  0.14510620546E+03  0.00000000000E+00 0.  1.
         21   -1    0    0  501  503 -0.00000000000E+00 -0.00000000000E+00 -0.20800310141E+03  0.20800310141E+03  0.00000000000E+00 0.  1.
          6    1    1    2  501    0  0.18583220807E+01 -0.22712938666E+02 -0.40493077903E+02  0.17816571023E+03  0.17200000000E+03 0. -1.
         -6    1    1    2    0  502 -0.18583220807E+01  0.22712938666E+02 -0.22403818046E+02  0.17494359664E+03  0.17200000000E+03 0. -1.
</event>
<event>
 4    1  0.5701701E+000  0.1949061E+03  0.7818608E-02  0.1154109E+00
         21   -1    0    0  501  502  0.00000000000E+00  0.00000000000E+00  0.60128087519E+02  0.60128087519E+02  0.00000000000E+00 0. -1.
         21   -1    0    0  502  503 -0.00000000000E+00 -0.00000000000E+00 -0.64977902834E+03  0.64977902834E+03  0.00000000000E+00 0. -1.
          6    1    1    2  501    0  0.91669102031E+02 -0.10796616875E+01 -0.23576738182E+03  0.30589973564E+03  0.17200000000E+03 0.  1.
         -6    1    1    2    0  503 -0.91669102031E+02  0.10796616875E+01 -0.35388355900E+03  0.40400738022E+03  0.17200000000E+03 0.  1.
</event>
<event>
 4    1  0.5701701E+000  0.1924756E+03  0.7818608E-02  0.1156247E+00
         21   -1    0    0  501  502  0.00000000000E+00  0.00000000000E+00  0.85798548812E+02  0.85798548812E+02  0.00000000000E+00 0.  1.
         21   -1    0    0  502  503 -0.00000000000E+00 -0.00000000000E+00 -0.43204590823E+03  0.43204590823E+03  0.00000000000E+00 0. -1.
          6    1    1    2  501    0  0.76213086209E+02  0.40674702738E+02 -0.17943803861E+03  0.26314421075E+03  0.17200000000E+03 0.  1.
         -6    1    1    2    0  503 -0.76213086209E+02 -0.40674702738E+02 -0.16680932082E+03  0.25470024630E+03  0.17200000000E+03 0. -1.
</event>
<event>
 4    1  0.5701701E+000  0.1722756E+03  0.7818608E-02  0.1175495E+00
         21   -1    0    0  501  502  0.00000000000E+00  0.00000000000E+00  0.57706510623E+02  0.57706510623E+02  0.00000000000E+00 0. -1.
         21   -1    0    0  502  503 -0.00000000000E+00 -0.00000000000E+00 -0.12478116151E+04  0.12478116151E+04  0.00000000000E+00 0. -1.
          6    1    1    2  501    0  0.41966437100E+00 -0.97319864470E+01 -0.94580657307E+02  0.19653088412E+03  0.17200000000E+03 0.  1.
         -6    1    1    2    0  503 -0.41966437100E+00  0.97319864470E+01 -0.10955244471E+04  0.11089872416E+04  0.17200000000E+03 0.  1.
</event>
<event>
 4    1  0.5701701E+000  0.3352164E+03  0.7818608E-02  0.1068852E+00
         21   -1    0    0  503  502  0.00000000000E+00  0.00000000000E+00  0.10195245603E+03  0.10195245603E+03  0.00000000000E+00 0. -1.
         21   -1    0    0  501  503 -0.00000000000E+00 -0.00000000000E+00 -0.11021841659E+04  0.11021841659E+04  0.00000000000E+00 0. -1.
          6    1    1    2  501    0 -0.27232771362E+03 -0.92863693046E+02 -0.50115325022E+03  0.60293003682E+03  0.17200000000E+03 0. -1.
         -6    1    1    2    0  502  0.27232771362E+03  0.92863693046E+02 -0.49907845962E+03  0.60120658509E+03  0.17200000000E+03 0. -1.
</event>
<event>
 4    1  0.5701701E+000  0.1858754E+03  0.7818608E-02  0.1162235E+00
         21   -1    0    0  501  502  0.00000000000E+00  0.00000000000E+00  0.50116544242E+03  0.50116544242E+03  0.00000000000E+00 0. -1.
         21   -1    0    0  502  503 -0.00000000000E+00 -0.00000000000E+00 -0.13528374347E+03  0.13528374347E+03  0.00000000000E+00 0.  1.
          6    1    1    2  501    0  0.22963282827E+02  0.66621017784E+02  0.40579222386E+03  0.44633731786E+03  0.17200000000E+03 0. -1.
         -6    1    1    2    0  503 -0.22963282827E+02 -0.66621017784E+02 -0.39910524900E+02  0.19011186803E+03  0.17200000000E+03 0.  1.
</event>
<event>
 4    1  0.5701701E+000  0.2135118E+03  0.7818608E-02  0.1138815E+00
         21   -1    0    0  503  502  0.00000000000E+00  0.00000000000E+00  0.72954536905E+03  0.72954536905E+03  0.00000000000E+00 0. -1.
         21   -1    0    0  501  503 -0.00000000000E+00 -0.00000000000E+00 -0.10874854796E+03  0.10874854796E+03  0.00000000000E+00 0. -1.
          6    1    1    2  501    0 -0.75926053890E+02 -0.10118555581E+03  0.37020448180E+02  0.21669747563E+03  0.17200000000E+03 0. -1.
         -6    1    1    2    0  502  0.75926053890E+02  0.10118555581E+03  0.58377637291E+03  0.62159644138E+03  0.17200000000E+03 0. -1.
</event>
<event>
 4    1  0.5701701E+000  0.1755430E+03  0.7818608E-02  0.1172188E+00
         21   -1    0    0  503  502  0.00000000000E+00  0.00000000000E+00  0.20368514505E+02  0.20368514505E+02  0.00000000000E+00 0. -1.
         21   -1    0    0  501  503 -0.00000000000E+00 -0.00000000000E+00 -0.15918556472E+04  0.15918556472E+04  0.00000000000E+00 0. -1.
          6    1    1    2  501    0 -0.25649172847E+02  0.23947208080E+02 -0.60620446299E+03  0.63110949905E+03  0.17200000000E+03 0.  1.
         -6    1    1    2    0  502  0.25649172847E+02 -0.23947208080E+02 -0.96528266971E+03  0.98111466266E+03  0.17200000000E+03 0.  1.
</event>
<event>
 4    1  0.5701701E+000  0.1905239E+03  0.7818608E-02  0.1157990E+00
         21   -1    0    0  501  502  0.00000000000E+00  0.00000000000E+00  0.24488848942E+03  0.24488848942E+03  0.00000000000E+00 0. -1.
         21   -1    0    0  502  503 -0.00000000000E+00 -0.00000000000E+00 -0.17061309019E+03  0.17061309019E+03  0.00000000000E+00 0. -1.
          6    1    1    2  501    0 -0.62907531423E+02 -0.52516654493E+02  0.11238915835E+03  0.22120280157E+03  0.17200000000E+03 0. -1.
         -6    1    1    2    0  503  0.62907531423E+02  0.52516654493E+02 -0.38113759124E+02  0.19429877803E+03  0.17200000000E+03 0. -1.
</event>
<event>
 4    1  0.5701701E+000  0.2938886E+03  0.7818608E-02  0.1088336E+00
         21   -1    0    0  503  502  0.00000000000E+00  0.00000000000E+00  0.27008334493E+03  0.27008334493E+03  0.00000000000E+00 0. -1.
         21   -1    0    0  501  503 -0.00000000000E+00 -0.00000000000E+00 -0.33459467022E+03  0.33459467022E+03  0.00000000000E+00 0.  1.
          6    1    1    2  501    0 -0.20211459490E+03  0.12623871581E+03 -0.95847750993E+02  0.30912346111E+03  0.17200000000E+03 0. -1.
         -6    1    1    2    0  502  0.20211459490E+03 -0.12623871581E+03  0.31336425706E+02  0.29555455404E+03  0.17200000000E+03 0. -1.
</event>
<event>
 4    1  0.5701701E+000  0.1810621E+03  0.7818608E-02  0.1166779E+00
         21   -1    0    0  503  502  0.00000000000E+00  0.00000000000E+00  0.80518917029E+03  0.80518917029E+03  0.00000000000E+00 0.  1.
         21   -1    0    0  501  503 -0.00000000000E+00 -0.00000000000E+00 -0.62250063350E+02  0.62250063350E+02  0.00000000000E+00 0.  1.
          6    1    1    2  501    0 -0.33459745909E+02 -0.45606148479E+02  0.62656914309E+03  0.65220577002E+03  0.17200000000E+03 0.  1.
         -6    1    1    2    0  502  0.33459745909E+02  0.45606148479E+02  0.11636996385E+03  0.21523346362E+03  0.17200000000E+03 0.  1.
</event>
<event>
 4    1  0.5701701E+000  0.3125583E+03  0.7818608E-02  0.1079126E+00
         21   -1    0    0  503  502  0.00000000000E+00  0.00000000000E+00  0.76676948961E+03  0.76676948961E+03  0.00000000000E+00 0. -1.
         21   -1    0    0  501  503 -0.00000000000E+00 -0.00000000000E+00 -0.15903876039E+03  0.15903876039E+03  0.00000000000E+00 0.  1.
          6    1    1    2  501    0 -0.12015592889E+03  0.23167055120E+03  0.97425644229E+02  0.32739035981E+03  0.17200000000E+03 0.  1.
         -6    1    1    2    0  502  0.12015592889E+03 -0.23167055120E+03  0.51030508499E+03  0.59841789020E+03  0.17200000000E+03 0. -1.
</event>
<event>
 4    1  0.5701701E+000  0.3181254E+03  0.7818608E-02  0.1076515E+00
         21   -1    0    0  501  502  0.00000000000E+00  0.00000000000E+00  0.18392978171E+03  0.18392978171E+03  0.00000000000E+00 0.  1.
         21   -1    0    0  502  503 -0.00000000000E+00 -0.00000000000E+00 -0.73592756014E+03  0.73592756014E+03  0.00000000000E+00 0. -1.
          6    1    1    2  501    0 -0.15475161269E+03 -0.21833851427E+03 -0.44965095089E+02  0.32128745419E+03  0.17200000000E+03 0.  1.
         -6    1    1    2    0  503  0.15475161269E+03  0.21833851427E+03 -0.50703268334E+03  0.59856988766E+03  0.17200000000E+03 0. -1.
</event>
<event>
 4    1  0.5701701E+000  0.3086439E+03  0.7818608E-02  0.1080998E+00
         21   -1    0    0  503  502  0.00000000000E+00  0.00000000000E+00  0.17829982671E+03  0.17829982671E+03  0.00000000000E+00 0.  1.
         21   -1    0    0  501  503 -0.00000000000E+00 -0.00000000000E+00 -0.70568200897E+03  0.70568200897E+03  0.00000000000E+00 0.  1.
          6    1    1    2  501    0  0.64127637914E+02  0.24812241183E+03 -0.48152400443E+03  0.57194969362E+03  0.17200000000E+03 0.  1.
         -6    1    1    2    0  502 -0.64127637914E+02 -0.24812241183E+03 -0.45858177832E+02  0.31203214205E+03  0.17200000000E+03 0.  1.
</event>
<event>
 4    1  0.5701701E+000  0.2287273E+03  0.7818608E-02  0.1127539E+00
         21   -1    0    0  501  502  0.00000000000E+00  0.00000000000E+00  0.13803820243E+03  0.13803820243E+03  0.00000000000E+00 0. -1.
         21   -1    0    0  502  503 -0.00000000000E+00 -0.00000000000E+00 -0.38177030631E+03  0.38177030631E+03  0.00000000000E+00 0. -1.
          6    1    1    2  501    0  0.85168151450E+02 -0.12441291297E+03 -0.14401442526E+03  0.27028936645E+03  0.17200000000E+03 0. -1.
         -6    1    1    2    0  503 -0.85168151450E+02  0.12441291297E+03 -0.99717678623E+02  0.24951914228E+03  0.17200000000E+03 0. -1.
</event>
<event>
 4    1  0.5701701E+000  0.2808104E+03  0.7818608E-02  0.1095247E+00
         21   -1    0    0  501  502  0.00000000000E+00  0.00000000000E+00  0.27790527337E+03  0.27790527337E+03  0.00000000000E+00 0.  1.
         21   -1    0    0  502  503 -0.00000000000E+00 -0.00000000000E+00 -0.28387508804E+03  0.28387508804E+03  0.00000000000E+00 0.  1.
          6    1    1    2  501    0 -0.38941594109E+02  0.21852690296E+03 -0.89793156241E+01  0.28095388088E+03  0.17200000000E+03 0.  1.
         -6    1    1    2    0  503  0.38941594109E+02 -0.21852690296E+03  0.30095009504E+01  0.28082648053E+03  0.17200000000E+03 0.  1.
</event>
<event>
 4    1  0.5701701E+000  0.2352040E+03  0.7818608E-02  0.1123030E+00
         21   -1    0    0  503  502  0.00000000000E+00  0.00000000000E+00  0.52970966651E+02  0.52970966651E+02  0.00000000000E+00 0. -1.
         21   -1    0    0  501  503 -0.00000000000E+00 -0.00000000000E+00 -0.16799576711E+04  0.16799576711E+04  0.00000000000E+00 0. -1.
          6    1    1    2  501    0 -0.14925081926E+03  0.58831306494E+02 -0.13464496023E+04  0.13668384913E+04  0.17200000000E+03 0. -1.
         -6    1    1    2    0  502  0.14925081926E+03 -0.58831306494E+02 -0.28053710215E+03  0.36609014649E+03  0.17200000000E+03 0. -1.
</event>
<event>
 4    1  0.5701701E+000  0.1760576E+03  0.7818608E-02  0.1171674E+00
         21   -1    0    0  501  502  0.00000000000E+00  0.00000000000E+00  0.29188783782E+03  0.29188783782E+03  0.00000000000E+00 0.  1.
         21   -1    0    0  502  503 -0.00000000000E+00 -0.00000000000E+00 -0.12773215141E+03  0.12773215141E+03  0.00000000000E+00 0.  1.
          6    1    1    2  501    0 -0.31157827231E+02 -0.21010918219E+02  0.16823600846E+03  0.24351514003E+03  0.17200000000E+03 0.  1.
         -6    1    1    2    0  503  0.31157827231E+02  0.21010918219E+02 -0.40803220476E+01  0.17610484920E+03  0.17200000000E+03 0.  1.
</event>
<event>
 4    1  0.5701701E+000  0.2455115E+03  0.7818608E-02  0.1116175E+00
         21   -1    0    0  501  502  0.00000000000E+00  0.00000000000E+00  0.79556883302E+02  0.79556883302E+02  0.00000000000E+00 0.  1.
         21   -1    0    0  502  503 -0.00000000000E+00 -0.00000000000E+00 -0.75768862419E+03  0.75768862419E+03  0.00000000000E+00 0.  1.
          6    1    1    2  501    0  0.16939686010E+03  0.44683077035E+02 -0.34224289160E+03  0.42119600003E+03  0.17200000000E+03 0.  1.
         -6    1    1    2    0  503 -0.16939686010E+03 -0.44683077035E+02 -0.33588884929E+03  0.41604950746E+03  0.17200000000E+03 0.  1.
</event>
<event>
 4    1  0.5701701E+000  0.1722124E+03  0.7818608E-02  0.1175560E+00
         21   -1    0    0  503  502  0.00000000000E+00  0.00000000000E+00  0.43296407526E+02  0.43296407526E+02  0.00000000000E+00 0. -1.
         21   -1    0    0  501  503 -0.00000000000E+00 -0.00000000000E+00 -0.82236254625E+03  0.82236254625E+03  0.00000000000E+00 0. -1.
          6    1    1    2  501    0 -0.11422768763E+01  0.84747776312E+01 -0.56644317809E+03  0.59204307331E+03  0.17200000000E+03 0. -1.
         -6    1    1    2    0  502  0.11422768763E+01 -0.84747776312E+01 -0.21262296063E+03  0.27361588046E+03  0.17200000000E+03 0. -1.
</event>
<event>
 4    1  0.5701701E+000  0.2704632E+03  0.7818608E-02  0.1101015E+00
         21   -1    0    0  503  502  0.00000000000E+00  0.00000000000E+00  0.17480799272E+03  0.17480799272E+03  0.00000000000E+00 0.  1.
         21   -1    0    0  501  503 -0.00000000000E+00 -0.00000000000E+00 -0.42119961958E+03  0.42119961958E+03  0.00000000000E+00 0.  1.
          6    1    1    2  501    0  0.20265847356E+03  0.49958772864E+02 -0.14722504302E+03  0.30793757352E+03  0.17200000000E+03 0.  1.
         -6    1    1    2    0  502 -0.20265847356E+03 -0.49958772864E+02 -0.99166583841E+02  0.28807003878E+03  0.17200000000E+03 0.  1.
</event>
<event>
 4    1  0.5701701E+000  0.1924366E+03  0.7818608E-02  0.1156282E+00
         21   -1    0    0  501  502  0.00000000000E+00  0.00000000000E+00  0.62964702214E+03  0.62964702214E+03  0.00000000000E+00 0. -1.
         21   -1    0    0  502  503 -0.00000000000E+00 -0.00000000000E+00 -0.59037993589E+02  0.59037993589E+02  0.00000000000E+00 0. -1.
          6    1    1    2  501    0 -0.38041388577E+02 -0.77464173619E+02  0.26407829369E+03  0.32675555181E+03  0.17200000000E+03 0. -1.
         -6    1    1    2    0  503  0.38041388577E+02  0.77464173619E+02  0.30653073487E+03  0.36192946393E+03  0.17200000000E+03 0. -1.
</event>
<event>
 4    1  0.5701701E+000  0.3016568E+03  0.7818608E-02  0.1084415E+00
         21   -1    0    0  501  502  0.00000000000E+00  0.00000000000E+00  0.12560141367E+03  0.12560141367E+03  0.00000000000E+00 0.  1.
         21   -1    0    0  502  503 -0.00000000000E+00 -0.00000000000E+00 -0.13771711240E+04  0.13771711240E+04  0.00000000000E+00 0. -1.
          6    1    1    2  501    0  0.23120570661E+03 -0.89200593291E+02 -0.10851138257E+03  0.32058001304E+03  0.17200000000E+03 0.  1.
         -6    1    1    2    0  503 -0.23120570661E+03  0.89200593291E+02 -0.11430583278E+04  0.11821925246E+04  0.17200000000E+03 0. -1.
</event>
<event>
 4    1  0.5701701E+000  0.1920556E+03  0.7818608E-02  0.1156620E+00
         21   -1    0    0  503  502  0.00000000000E+00  0.00000000000E+00  0.11420242894E+03  0.11420242894E+03  0.00000000000E+00 0.  1.
         21   -1    0    0  501  503 -0.00000000000E+00 -0.00000000000E+00 -0.39123246641E+03  0.39123246641E+03  0.00000000000E+00 0. -1.
          6    1    1    2  501    0  0.75663070909E+02 -0.39704803989E+02 -0.24406773186E+03  0.31057113435E+03  0.17200000000E+03 0. -1.
         -6    1    1    2    0  502 -0.75663070909E+02  0.39704803989E+02 -0.32962305611E+02  0.19486376100E+03  0.17200000000E+03 0.  1.
</event>
<event>
 4    1  0.5701701E+000  0.1792614E+03  0.7818608E-02  0.1168520E+00
         21   -1    0    0  503  502  0.00000000000E+00  0.00000000000E+00  0.27785634360E+04  0.27785634360E+04  0.00000000000E+00 0. -1.
         21   -1    0    0  501  503 -0.00000000000E+00 -0.00000000000E+00 -0.11654809434E+02  0.11654809434E+02  0.00000000000E+00 0.  1.
          6    1    1    2  501    0  0.14506282871E+02 -0.48375784053E+02  0.12611261483E+04  0.12738028932E+04  0.17200000000E+03 0.  1.
         -6    1    1    2    0  502 -0.14506282871E+02  0.48375784053E+02  0.15057824782E+04  0.15164153522E+04  0.17200000000E+03 0. -1.
</event>
<event>
 4    1  0.5701701E+000  0.2087277E+03  0.7818608E-02  0.1142577E+00
         21   -1    0    0  503  502  0.00000000000E+00  0.00000000000E+00  0.72810142310E+03  0.72810142310E+03  0.00000000000E+00 0. -1.
         21   -1    0    0  501  503 -0.00000000000E+00 -0.00000000000E+00 -0.16811759169E+03  0.16811759169E+03  0.00000000000E+00 0. -1.
          6    1    1    2  501    0  0.45387932764E+02  0.10919343729E+03 -0.79635884551E+02  0.22340354808E+03  0.17200000000E+03 0. -1.
         -6    1    1    2    0  502 -0.45387932764E+02 -0.10919343729E+03  0.63961971596E+03  0.67281546670E+03  0.17200000000E+03 0. -1.
</event>
<event>
 4    1  0.5701701E+000  0.2991747E+03  0.7818608E-02  0.1085654E+00
         21   -1    0    0  501  502  0.00000000000E+00  0.00000000000E+00  0.18891345812E+04  0.18891345812E+04  0.00000000000E+00 0. -1.
         21   -1    0    0  502  503 -0.00000000000E+00 -0.00000000000E+00 -0.60000269914E+02  0.60000269914E+02  0.00000000000E+00 0.  1.
          6    1    1    2  501    0 -0.69028083101E+02 -0.23485449690E+03  0.13615439348E+04  0.13940256086E+04  0.17200000000E+03 0. -1.
         -6    1    1    2    0  503  0.69028083101E+02  0.23485449690E+03  0.46759037649E+03  0.55510924254E+03  0.17200000000E+03 0. -1.
</event>
<event>
 4    1  0.5701701E+000  0.2361981E+03  0.7818608E-02  0.1122352E+00
         21   -1    0    0  503  502  0.00000000000E+00  0.00000000000E+00  0.17228568446E+03  0.17228568446E+03  0.00000000000E+00 0. -1.
         21   -1    0    0  501  503 -0.00000000000E+00 -0.00000000000E+00 -0.32668029628E+03  0.32668029628E+03  0.00000000000E+00 0.  1.
          6    1    1    2  501    0 -0.88398383961E+02 -0.13561434761E+03 -0.53852197279E+02  0.24225933360E+03  0.17200000000E+03 0. -1.
         -6    1    1    2    0  502  0.88398383961E+02  0.13561434761E+03 -0.10054241454E+03  0.25670664714E+03  0.17200000000E+03 0.  1.
</event>
<event>
 4    1  0.5701701E+000  0.1865529E+03  0.7818608E-02  0.1161608E+00
         21   -1    0    0  503  502  0.00000000000E+00  0.00000000000E+00  0.83456299932E+02  0.83456299932E+02  0.00000000000E+00 0.  1.
         21   -1    0    0  501  503 -0.00000000000E+00 -0.00000000000E+00 -0.60103779226E+03  0.60103779226E+03  0.00000000000E+00 0.  1.
          6    1    1    2  501    0 -0.71317099686E+02  0.11483451455E+02 -0.44816988078E+03  0.48544643412E+03  0.17200000000E+03 0.  1.
         -6    1    1    2    0  502  0.71317099686E+02 -0.11483451455E+02 -0.69411611549E+02  0.19904765807E+03  0.17200000000E+03 0.  1.
</event>
<event>
 4    1  0.5701701E+000  0.3651612E+03  0.7818608E-02  0.1056559E+00
         21   -1    0    0  503  502  0.00000000000E+00  0.00000000000E+00  0.19926262363E+03  0.19926262363E+03  0.00000000000E+00 0. -1.
         21   -1    0    0  501  503 -0.00000000000E+00 -0.00000000000E+00 -0.67873476622E+03  0.67873476622E+03  0.00000000000E+00 0.  1.
          6    1    1    2  501    0  0.32201609336E+03  0.80209901726E+01 -0.29182044583E+03  0.46744183945E+03  0.17200000000E+03 0. -1.
         -6    1    1    2    0  502 -0.32201609336E+03 -0.80209901726E+01 -0.18765169676E+03  0.41055555040E+03  0.17200000000E+03 0.  1.
</event>
<event>
 4    1  0.5701701E+000  0.3249382E+03  0.7818608E-02  0.1073399E+00
         21   -1    0    0  501  502  0.00000000000E+00  0.00000000000E+00  0.98851874357E+02  0.98851874357E+02  0.00000000000E+00 0. -1.
         21   -1    0    0  502  503 -0.00000000000E+00 -0.00000000000E+00 -0.11086190422E+04  0.11086190422E+04  0.00000000000E+00 0. -1.
          6    1    1    2  501    0  0.27544192962E+03  0.11513143953E+02 -0.62028848703E+03  0.70024468311E+03  0.17200000000E+03 0. -1.
         -6    1    1    2    0  503 -0.27544192962E+03 -0.11513143953E+02 -0.38947868076E+03  0.50722623340E+03  0.17200000000E+03 0. -1.
</event>
<event>
 4    1  0.5701701E+000  0.1741198E+03  0.7818608E-02  0.1173618E+00
         21   -1    0    0  501  502  0.00000000000E+00  0.00000000000E+00  0.36255093196E+03  0.36255093196E+03  0.00000000000E+00 0.  1.
         21   -1    0    0  502  503 -0.00000000000E+00 -0.00000000000E+00 -0.85097895150E+02  0.85097895150E+02  0.00000000000E+00 0.  1.
          6    1    1    2  501    0 -0.15150135766E+02  0.22453916846E+02  0.10926300116E+03  0.20556290623E+03  0.17200000000E+03 0. -1.
         -6    1    1    2    0  503  0.15150135766E+02 -0.22453916846E+02  0.16819003565E+03  0.24208592088E+03  0.17200000000E+03 0. -1.
</event>
<event>
 4    1  0.5701701E+000  0.2416329E+03  0.7818608E-02  0.1118710E+00
         21   -1    0    0  503  502  0.00000000000E+00  0.00000000000E+00  0.22923183336E+02  0.22923183336E+02  0.00000000000E+00 0.  1.
         21   -1    0    0  501  503 -0.00000000000E+00 -0.00000000000E+00 -0.25846567805E+04  0.25846567805E+04  0.00000000000E+00 0. -1.
          6    1    1    2  501    0 -0.16031575220E+02 -0.16895391463E+03 -0.11235939525E+04  0.11492823007E+04  0.17200000000E+03 0. -1.
         -6    1    1    2    0  502  0.16031575220E+02  0.16895391463E+03 -0.14381396447E+04  0.14582976631E+04  0.17200000000E+03 0.  1.
</event>
<event>
 4    1  0.5701701E+000  0.1940643E+03  0.7818608E-02  0.1154846E+00
         21   -1    0    0  503  502  0.00000000000E+00  0.00000000000E+00  0.15438469109E+04  0.15438469109E+04  0.00000000000E+00 0. -1.
         21   -1    0    0  501  503 -0.00000000000E+00 -0.00000000000E+00 -0.59510495802E+02  0.59510495802E+02  0.00000000000E+00 0. -1.
          6    1    1    2  501    0  0.89408208654E+02  0.91172322895E+01  0.12634259716E+03  0.23156727653E+03  0.17200000000E+03 0. -1.
         -6    1    1    2    0  502 -0.89408208654E+02 -0.91172322895E+01  0.13579938179E+04  0.13717901302E+04  0.17200000000E+03 0. -1.
</event>
<event>
 4    1  0.5701701E+000  0.1943217E+03  0.7818608E-02  0.1154620E+00
         21   -1    0    0  501  502  0.00000000000E+00  0.00000000000E+00  0.33814279880E+02  0.33814279880E+02  0.00000000000E+00 0. -1.
         21   -1    0    0  502  503 -0.00000000000E+00 -0.00000000000E+00 -0.11873067303E+04  0.11873067303E+04  0.00000000000E+00 0.  1.
          6    1    1    2  501    0  0.40132397789E+02 -0.81032749399E+02 -0.42787047942E+03  0.46992984901E+03  0.17200000000E+03 0. -1.
         -6    1    1    2    0  503 -0.40132397789E+02  0.81032749399E+02 -0.72562197096E+03  0.75119116113E+03  0.17200000000E+03 0.  1.
</event>
<event>
 4    1  0.5701701E+000  0.1725450E+03  0.7818608E-02  0.1175219E+00
         21   -1    0    0  501  502  0.00000000000E+00  0.00000000000E+00  0.41654804984E+03  0.41654804984E+03  0.00000000000E+00 0. -1.
         21   -1    0    0  502  503 -0.00000000000E+00 -0.00000000000E+00 -0.74906489748E+02  0.74906489748E+02  0.00000000000E+00 0. -1.
          6    1    1    2  501    0  0.36068281848E+01 -0.13220309736E+02  0.11820878949E+03  0.20915330194E+03  0.17200000000E+03 0. -1.
         -6    1    1    2    0  503 -0.36068281848E+01  0.13220309736E+02  0.22343277060E+03  0.28230123765E+03  0.17200000000E+03 0. -1.
</event>
<event>
 4    1  0.5701701E+000  0.2216908E+03  0.7818608E-02  0.1132629E+00
         21   -1    0    0  501  502  0.00000000000E+00  0.00000000000E+00  0.68492685976E+03  0.68492685976E+03  0.00000000000E+00 0.  1.
         21   -1    0    0  502  503 -0.00000000000E+00 -0.00000000000E+00 -0.82837882836E+02  0.82837882836E+02  0.00000000000E+00 0.  1.
          6    1    1    2  501    0 -0.46611526143E+02  0.13187181783E+03  0.44145944377E+03  0.49399721781E+03  0.17200000000E+03 0.  1.
         -6    1    1    2    0  503  0.46611526143E+02 -0.13187181783E+03  0.16062953315E+03  0.27376752479E+03  0.17200000000E+03 0.  1.
</event>
<event>
 4    1  0.5701701E+000  0.2148305E+03  0.7818608E-02  0.1137797E+00
         21   -1    0    0  503  502  0.00000000000E+00  0.00000000000E+00  0.25841234548E+03  0.25841234548E+03  0.00000000000E+00 0. -1.
         21   -1    0    0  501  503 -0.00000000000E+00 -0.00000000000E+00 -0.21886567338E+03  0.21886567338E+03  0.00000000000E+00 0. -1.
          6    1    1    2  501    0 -0.79863442094E+02 -0.10094547409E+03 -0.82585674534E+02  0.23015766718E+03  0.17200000000E+03 0.  1.
         -6    1    1    2    0  502  0.79863442094E+02  0.10094547409E+03  0.12213234664E+03  0.24712035169E+03  0.17200000000E+03 0.  1.
</event>
<event>
 4    1  0.5701701E+000  0.2982160E+03  0.7818608E-02  0.1086136E+00
         21   -1    0    0  501  502  0.00000000000E+00  0.00000000000E+00  0.40042185505E+03  0.40042185505E+03  0.00000000000E+00 0.  1.
         21   -1    0    0  502  503 -0.00000000000E+00 -0.00000000000E+00 -0.22222510198E+03  0.22222510198E+03  0.00000000000E+00 0. -1.
          6    1    1    2  501    0  0.92282948244E+02 -0.22546089405E+03  0.81642985097E+02  0.30918980303E+03  0.17200000000E+03 0. -1.
         -6    1    1    2    0  503 -0.92282948244E+02  0.22546089405E+03  0.96553767972E+02  0.31345715399E+03  0.17200000000E+03 0.  1.
</event>
<event>
 4    1  0.5701701E+000  0.1943929E+03  0.7818608E-02  0.1154558E+00
         21   -1    0    0  501  502  0.00000000000E+00  0.00000000000E+00  0.51318022341E+03  0.51318022341E+03  0.00000000000E+00 0.  1.
         21   -1    0    0  502  503 -0.00000000000E+00 -0.00000000000E+00 -0.17261801102E+03  0.17261801102E+03  0.00000000000E+00 0.  1.
          6    1    1    2  501    0  0.86198061260E+02 -0.27829435950E+02  0.42993883854E+03  0.47184318174E+03  0.17200000000E+03 0.  1.
         -6    1    1    2    0  503 -0.86198061260E+02  0.27829435950E+02 -0.89376626142E+02  0.21395505269E+03  0.17200000000E+03 0.  1.
</event>
<event>
 4    1  0.5701701E+000  0.1968666E+03  0.7818608E-02  0.1152410E+00
         21   -1    0    0  501  502  0.00000000000E+00  0.00000000000E+00  0.73563881683E+03  0.73563881683E+03  0.00000000000E+00 0. -1.
         21   -1    0    0  502  503 -0.00000000000E+00 -0.00000000000E+00 -0.54015907890E+02  0.54015907890E+02  0.00000000000E+00 0. -1.
          6    1    1    2  501    0  0.94013065617E+02  0.18275410725E+02  0.40280864883E+03  0.44834278707E+03  0.17200000000E+03 0. -1.
         -6    1    1    2    0  503 -0.94013065617E+02 -0.18275410725E+02  0.27881426011E+03  0.34131193766E+03  0.17200000000E+03 0. -1.
</event>
<event>
 4    1  0.5701701E+000  0.2217228E+03  0.7818608E-02  0.1132605E+00
         21   -1    0    0  501  502  0.00000000000E+00  0.00000000000E+00  0.19105992201E+03  0.19105992201E+03  0.00000000000E+00 0. -1.
         21   -1    0    0  502  503 -0.00000000000E+00 -0.00000000000E+00 -0.27836720117E+03  0.27836720117E+03  0.00000000000E+00 0. -1.
          6    1    1    2  501    0 -0.12761356941E+03 -0.57374073088E+02  0.20906282813E+02  0.22270626399E+03  0.17200000000E+03 0. -1.
         -6    1    1    2    0  503  0.12761356941E+03  0.57374073088E+02 -0.10821356197E+03  0.24672085918E+03  0.17200000000E+03 0. -1.
</event>
<event>
 4    1  0.5701701E+000  0.2203642E+03  0.7818608E-02  0.1133612E+00
         21   -1    0    0  503  502  0.00000000000E+00  0.00000000000E+00  0.20006538954E+03  0.20006538954E+03  0.00000000000E+00 0. -1.
         21   -1    0    0  501  503 -0.00000000000E+00 -0.00000000000E+00 -0.25875879125E+03  0.25875879125E+03  0.00000000000E+00 0.  1.
          6    1    1    2  501    0  0.76208891452E+02  0.11475448130E+03 -0.86457695604E+02  0.23671780508E+03  0.17200000000E+03 0.  1.
         -6    1    1    2    0  502 -0.76208891452E+02 -0.11475448130E+03  0.27764293887E+02  0.22210637571E+03  0.17200000000E+03 0.  1.
</event>
<event>
 4    1  0.5701701E+000  0.2036374E+03  0.7818608E-02  0.1146706E+00
         21   -1    0    0  503  502  0.00000000000E+00  0.00000000000E+00  0.28509318908E+02  0.28509318908E+02  0.00000000000E+00 0.  1.
         21   -1    0    0  501  503 -0.00000000000E+00 -0.00000000000E+00 -0.18073555201E+04  0.18073555201E+04  0.00000000000E+00 0.  1.
          6    1    1    2  501    0 -0.10767218717E+03  0.17055384970E+02 -0.12949853699E+04  0.13108986590E+04  0.17200000000E+03 0.  1.
         -6    1    1    2    0  502  0.10767218717E+03 -0.17055384970E+02 -0.48386083137E+03  0.52496618003E+03  0.17200000000E+03 0.  1.
</event>
<event>
 4    1  0.5701701E+000  0.2153074E+03  0.7818608E-02  0.1137431E+00
         21   -1    0    0  503  502  0.00000000000E+00  0.00000000000E+00  0.56306167333E+02  0.56306167333E+02  0.00000000000E+00 0.  1.
         21   -1    0    0  501  503 -0.00000000000E+00 -0.00000000000E+00 -0.94628941033E+03  0.94628941033E+03  0.00000000000E+00 0.  1.
          6    1    1    2  501    0 -0.11349481073E+03 -0.62387621546E+02 -0.62571090417E+03  0.66171853758E+03  0.17200000000E+03 0.  1.
         -6    1    1    2    0  502  0.11349481073E+03  0.62387621546E+02 -0.26427233883E+03  0.34087704008E+03  0.17200000000E+03 0.  1.
</event>
<event>
 4    1  0.5701701E+000  0.3052208E+03  0.7818608E-02  0.1082660E+00
         21   -1    0    0  501  502  0.00000000000E+00  0.00000000000E+00  0.28435975063E+03  0.28435975063E+03  0.00000000000E+00 0. -1.
         21   -1    0    0  502  503 -0.00000000000E+00 -0.00000000000E+00 -0.51117715169E+03  0.51117715169E+03  0.00000000000E+00 0.  1.
          6    1    1    2  501    0  0.21343315519E+02  0.25123732738E+03  0.12495464104E+03  0.32980811710E+03  0.17200000000E+03 0. -1.
         -6    1    1    2    0  503 -0.21343315519E+02 -0.25123732738E+03 -0.35177204209E+03  0.46572878522E+03  0.17200000000E+03 0.  1.
</event>
<event>
 4    1  0.5701701E+000  0.1731357E+03  0.7818608E-02  0.1174617E+00
         21   -1    0    0  501  502  0.00000000000E+00  0.00000000000E+00  0.10495515561E+03  0.10495515561E+03  0.00000000000E+00 0.  1.
         21   -1    0    0  502  503 -0.00000000000E+00 -0.00000000000E+00 -0.12905657970E+04  0.12905657970E+04  0.00000000000E+00 0.  1.
          6    1    1    2  501    0  0.83009723152E+00 -0.19780842575E+02  0.22924699644E+02  0.17464682261E+03  0.17200000000E+03 0.  1.
         -6    1    1    2    0  503 -0.83009723152E+00  0.19780842575E+02 -0.12085353410E+04  0.12208741300E+04  0.17200000000E+03 0.  1.
</event>
<event>
 4    1  0.5701701E+000  0.1936774E+03  0.7818608E-02  0.1155186E+00
         21   -1    0    0  503  502  0.00000000000E+00  0.00000000000E+00  0.46407436395E+03  0.46407436395E+03  0.00000000000E+00 0.  1.
         21   -1    0    0  501  503 -0.00000000000E+00 -0.00000000000E+00 -0.18953762316E+03  0.18953762316E+03  0.00000000000E+00 0.  1.
          6    1    1    2  501    0  0.16077758081E+02  0.87569628976E+02 -0.11023045611E+03  0.22284902441E+03  0.17200000000E+03 0.  1.
         -6    1    1    2    0  502 -0.16077758081E+02 -0.87569628976E+02  0.38476719690E+03  0.43076296270E+03  0.17200000000E+03 0.  1.
</event>
<event>
 4    1  0.5701701E+000  0.3060319E+03  0.7818608E-02  0.1082264E+00
         21   -1    0    0  503  502  0.00000000000E+00  0.00000000000E+00  0.24052764273E+03  0.24052764273E+03  0.00000000000E+00 0.  1.
         21   -1    0    0  501  503 -0.00000000000E+00 -0.00000000000E+00 -0.41075624031E+03  0.41075624031E+03  0.00000000000E+00 0.  1.
          6    1    1    2  501    0 -0.20163530713E+02  0.25231921071E+03 -0.10819155326E+02  0.30622313137E+03  0.17200000000E+03 0.  1.
         -6    1    1    2    0  502  0.20163530713E+02 -0.25231921071E+03 -0.15940944226E+03  0.34506075167E+03  0.17200000000E+03 0.  1.
</event>
<event>
 4    1  0.5701701E+000  0.1914168E+03  0.7818608E-02  0.1157190E+00
         21   -1    0    0  503  502  0.00000000000E+00  0.00000000000E+00  0.29418565664E+03  0.29418565664E+03  0.00000000000E+00 0.  1.
         21   -1    0    0  501  503 -0.00000000000E+00 -0.00000000000E+00 -0.16083499899E+03  0.16083499899E+03  0.00000000000E+00 0. -1.
          6    1    1    2  501    0 -0.47046077358E+02 -0.69592143963E+02 -0.41389161930E+02  0.19584040089E+03  0.17200000000E+03 0. -1.
         -6    1    1    2    0  502  0.47046077358E+02  0.69592143963E+02  0.17473981958E+03  0.25918025473E+03  0.17200000000E+03 0.  1.
</event>
<event>
 4    1  0.5701701E+000  0.1727919E+03  0.7818608E-02  0.1174967E+00
         21   -1    0    0  501  502  0.00000000000E+00  0.00000000000E+00  0.10988933184E+03  0.10988933184E+03  0.00000000000E+00 0. -1.
         21   -1    0    0  502  503 -0.00000000000E+00 -0.00000000000E+00 -0.33125730186E+03  0.33125730186E+03  0.00000000000E+00 0.  1.
          6    1    1    2  501    0 -0.10197678130E+02 -0.13002201402E+02 -0.17157670250E+02  0.17364168719E+03  0.17200000000E+03 0. -1.
         -6    1    1    2    0  503  0.10197678130E+02  0.13002201402E+02 -0.20421029977E+03  0.26750494652E+03  0.17200000000E+03 0.  1.
</event>
<event>
 4    1  0.5701701E+000  0.2177221E+03  0.7818608E-02  0.1135593E+00
         21   -1    0    0  501  502  0.00000000000E+00  0.00000000000E+00  0.14247761219E+03  0.14247761219E+03  0.00000000000E+00 0. -1.
         21   -1    0    0  502  503 -0.00000000000E+00 -0.00000000000E+00 -0.35887669297E+03  0.35887669297E+03  0.00000000000E+00 0. -1.
          6    1    1    2  501    0  0.11951814206E+03  0.59450357582E+02 -0.40503565298E+02  0.22145760339E+03  0.17200000000E+03 0. -1.
         -6    1    1    2    0  503 -0.11951814206E+03 -0.59450357582E+02 -0.17589551548E+03  0.27989670178E+03  0.17200000000E+03 0. -1.
</event>
<event>
 4    1  0.5701701E+000  0.2411977E+03  0.7818608E-02  0.1118998E+00
         21   -1    0    0  503  502  0.00000000000E+00  0.00000000000E+00  0.33544274111E+03  0.33544274111E+03  0.00000000000E+00 0. -1.
         21   -1    0    0  501  503 -0.00000000000E+00 -0.00000000000E+00 -0.17506432060E+03  0.17506432060E+03  0.00000000000E+00 0. -1.
          6    1    1    2  501    0  0.11831721783E+03 -0.12080297769E+03  0.55537455276E+02  0.24750905517E+03  0.17200000000E+03 0. -1.
         -6    1    1    2    0  502 -0.11831721783E+03  0.12080297769E+03  0.10484096524E+03  0.26299800654E+03  0.17200000000E+03 0. -1.
</event>
<event>
 4    1  0.5701701E+000  0.1860070E+03  0.7818608E-02  0.1162113E+00
         21   -1    0    0  501  502  0.00000000000E+00  0.00000000000E+00  0.45912080667E+03  0.45912080667E+03  0.00000000000E+00 0. -1.
         21   -1    0    0  502  503 -0.00000000000E+00 -0.00000000000E+00 -0.82232221864E+02  0.82232221864E+02  0.00000000000E+00 0. -1.
          6    1    1    2  501    0  0.73028463151E+01 -0.70436398090E+02  0.26670218078E+03  0.32515945469E+03  0.17200000000E+03 0. -1.
         -6    1    1    2    0  503 -0.73028463151E+01  0.70436398090E+02  0.11018640403E+03  0.21619357385E+03  0.17200000000E+03 0. -1.
</event>
<event>
 4    1  0.5701701E+000  0.1867556E+03  0.7818608E-02  0.1161421E+00
         21   -1    0    0  501  502  0.00000000000E+00  0.00000000000E+00  0.53085311453E+03  0.53085311453E+03  0.00000000000E+00 0. -1.
         21   -1    0    0  502  503 -0.00000000000E+00 -0.00000000000E+00 -0.66816093575E+02  0.66816093575E+02  0.00000000000E+00 0. -1.
          6    1    1    2  501    0  0.47544401880E+02  0.55074312925E+02  0.19341556327E+03  0.26886284646E+03  0.17200000000E+03 0.  1.
         -6    1    1    2    0  503 -0.47544401880E+02 -0.55074312925E+02  0.27062145768E+03  0.32880636164E+03  0.17200000000E+03 0.  1.
</event>
<event>
 4    1  0.5701701E+000  0.1726298E+03  0.7818608E-02  0.1175133E+00
         21   -1    0    0  503  502  0.00000000000E+00  0.00000000000E+00  0.52935707903E+02  0.52935707903E+02  0.00000000000E+00 0. -1.
         21   -1    0    0  501  503 -0.00000000000E+00 -0.00000000000E+00 -0.83613498793E+03  0.83613498793E+03  0.00000000000E+00 0. -1.
          6    1    1    2  501    0  0.11747707982E+02 -0.88898660446E+01 -0.64568712747E+03  0.66836584663E+03  0.17200000000E+03 0. -1.
         -6    1    1    2    0  502 -0.11747707982E+02  0.88898660446E+01 -0.13751215256E+03  0.22070484920E+03  0.17200000000E+03 0. -1.
</event>
<event>
 4    1  0.5701701E+000  0.3040244E+03  0.7818608E-02  0.1083246E+00
         21   -1    0    0  503  502  0.00000000000E+00  0.00000000000E+00  0.32882618873E+03  0.32882618873E+03  0.00000000000E+00 0.  1.
         21   -1    0    0  501  503 -0.00000000000E+00 -0.00000000000E+00 -0.28538975246E+03  0.28538975246E+03  0.00000000000E+00 0. -1.
          6    1    1    2  501    0  0.18000384617E+03  0.17448620287E+03  0.59399859314E+02  0.30977276012E+03  0.17200000000E+03 0.  1.
         -6    1    1    2    0  502 -0.18000384617E+03 -0.17448620287E+03 -0.15963423039E+02  0.30444318107E+03  0.17200000000E+03 0. -1.
</event>
<event>
 4    1  0.5701701E+000  0.1932665E+03  0.7818608E-02  0.1155548E+00
         21   -1    0    0  501  502  0.00000000000E+00  0.00000000000E+00  0.87222231703E+03  0.87222231703E+03  0.00000000000E+00 0. -1.
         21   -1    0    0  502  503 -0.00000000000E+00 -0.00000000000E+00 -0.52593281265E+02  0.52593281265E+02  0.00000000000E+00 0.  1.
          6    1    1    2  501    0  0.82011419648E+02  0.32281357957E+02  0.60910823338E+03  0.63903427059E+03  0.17200000000E+03 0. -1.
         -6    1    1    2    0  503 -0.82011419648E+02 -0.32281357957E+02  0.21052080238E+03  0.28578132770E+03  0.17200000000E+03 0. -1.
</event>
<event>
 4    1  0.5701701E+000  0.1848182E+03  0.7818608E-02  0.1163220E+00
         21   -1    0    0  503  502  0.00000000000E+00  0.00000000000E+00  0.15402206704E+03  0.15402206704E+03  0.00000000000E+00 0. -1.
         21   -1    0    0  501  503 -0.00000000000E+00 -0.00000000000E+00 -0.34089821984E+03  0.34089821984E+03  0.00000000000E+00 0. -1.
          6    1    1    2  501    0  0.62897122754E+02 -0.24853830323E+02  0.52845921715E+02  0.19222500455E+03  0.17200000000E+03 0. -1.
         -6    1    1    2    0  502 -0.62897122754E+02  0.24853830323E+02 -0.23972207451E+03  0.30269528232E+03  0.17200000000E+03 0. -1.
</event>
<event>
 4    1  0.5701701E+000  0.2273276E+03  0.7818608E-02  0.1128535E+00
         21   -1    0    0  503  502  0.00000000000E+00  0.00000000000E+00  0.11431295573E+04  0.11431295573E+04  0.00000000000E+00 0. -1.
         21   -1    0    0  501  503 -0.00000000000E+00 -0.00000000000E+00 -0.11781725056E+03  0.11781725056E+03  0.00000000000E+00 0. -1.
          6    1    1    2  501    0 -0.80125904980E+02 -0.12519446688E+03  0.17707254872E+02  0.22801614430E+03  0.17200000000E+03 0. -1.
         -6    1    1    2    0  502  0.80125904980E+02  0.12519446688E+03  0.10076050519E+04  0.10329306636E+04  0.17200000000E+03 0. -1.
</event>
<event>
 4    1  0.5701701E+000  0.2107577E+03  0.7818608E-02  0.1140967E+00
         21   -1    0    0  501  502  0.00000000000E+00  0.00000000000E+00  0.69453763137E+03  0.69453763137E+03  0.00000000000E+00 0.  1.
         21   -1    0    0  502  503 -0.00000000000E+00 -0.00000000000E+00 -0.97469329932E+02  0.97469329932E+02  0.00000000000E+00 0. -1.
          6    1    1    2  501    0 -0.10747073713E+03  0.57313662719E+02  0.53074550173E+03  0.57106006941E+03  0.17200000000E+03 0.  1.
         -6    1    1    2    0  503  0.10747073713E+03 -0.57313662719E+02  0.66322799710E+02  0.22094689189E+03  0.17200000000E+03 0. -1.
</event>
<event>
 4    1  0.5701701E+000  0.1889711E+03  0.7818608E-02  0.1159393E+00
         21   -1    0    0  501  502  0.00000000000E+00  0.00000000000E+00  0.14802314135E+03  0.14802314135E+03  0.00000000000E+00 0. -1.
         21   -1    0    0  502  503 -0.00000000000E+00 -0.00000000000E+00 -0.25323369998E+03  0.25323369998E+03  0.00000000000E+00 0. -1.
          6    1    1    2  501    0  0.74564649389E+02  0.23794765660E+02 -0.89548033483E+01  0.18918315547E+03  0.17200000000E+03 0. -1.
         -6    1    1    2    0  503 -0.74564649389E+02 -0.23794765660E+02 -0.96255755284E+02  0.21207368587E+03  0.17200000000E+03 0. -1.
</event>
<event>
 4    1  0.5701701E+000  0.2814198E+03  0.7818608E-02  0.1094916E+00
         21   -1    0    0  501  502  0.00000000000E+00  0.00000000000E+00  0.74648649987E+02  0.74648649987E+02  0.00000000000E+00 0.  1.
         21   -1    0    0  502  503 -0.00000000000E+00 -0.00000000000E+00 -0.12077677375E+04  0.12077677375E+04  0.00000000000E+00 0. -1.
          6    1    1    2  501    0 -0.19381102243E+03  0.10977416042E+03 -0.79013518250E+03  0.83875543834E+03  0.17200000000E+03 0. -1.
         -6    1    1    2    0  503  0.19381102243E+03 -0.10977416042E+03 -0.34298390504E+03  0.44366094918E+03  0.17200000000E+03 0.  1.
</event>
<event>
 4    1  0.5701701E+000  0.1772095E+03  0.7818608E-02  0.1170531E+00
         21   -1    0    0  503  502  0.00000000000E+00  0.00000000000E+00  0.10641076168E+04  0.10641076168E+04  0.00000000000E+00 0. -1.
         21   -1    0    0  501  503 -0.00000000000E+00 -0.00000000000E+00 -0.34461495143E+02  0.34461495143E+02  0.00000000000E+00 0. -1.
          6    1    1    2  501    0 -0.41123329843E+02  0.11317043561E+02  0.30664196043E+03  0.35416450362E+03  0.17200000000E+03 0. -1.
         -6    1    1    2    0  502  0.41123329843E+02 -0.11317043561E+02  0.72300416126E+03  0.74440460835E+03  0.17200000000E+03 0. -1.
</event>
<event>
 4    1  0.5701701E+000  0.5385454E+03  0.7818608E-02  0.1004181E+00
         21   -1    0    0  501  502  0.00000000000E+00  0.00000000000E+00  0.16495921826E+04  0.16495921826E+04  0.00000000000E+00 0.  1.
         21   -1    0    0  502  503 -0.00000000000E+00 -0.00000000000E+00 -0.22581882476E+03  0.22581882476E+03  0.00000000000E+00 0. -1.
          6    1    1    2  501    0  0.16345878476E+03  0.48345467467E+03  0.11531182271E+04  0.12726793950E+04  0.17200000000E+03 0.  1.
         -6    1    1    2    0  503 -0.16345878476E+03 -0.48345467467E+03  0.27065513077E+03  0.60273161240E+03  0.17200000000E+03 0. -1.
</event>
<event>
 4    1  0.5701701E+000  0.2697455E+03  0.7818608E-02  0.1101425E+00
         21   -1    0    0  501  502  0.00000000000E+00  0.00000000000E+00  0.15484343897E+04  0.15484343897E+04  0.00000000000E+00 0.  1.
         21   -1    0    0  502  503 -0.00000000000E+00 -0.00000000000E+00 -0.64335015566E+02  0.64335015566E+02  0.00000000000E+00 0.  1.
          6    1    1    2  501    0  0.18585613406E+03 -0.92930915534E+02  0.32336028351E+03  0.42109919328E+03  0.17200000000E+03 0.  1.
         -6    1    1    2    0  503 -0.18585613406E+03  0.92930915534E+02  0.11607390906E+04  0.11916702120E+04  0.17200000000E+03 0.  1.
</event>
<event>
 4    1  0.5701701E+000  0.1764338E+03  0.7818608E-02  0.1171300E+00
         21   -1    0    0  501  502  0.00000000000E+00  0.00000000000E+00  0.12927172408E+03  0.12927172408E+03  0.00000000000E+00 0. -1.
         21   -1    0    0  502  503 -0.00000000000E+00 -0.00000000000E+00 -0.10736111057E+04  0.10736111057E+04  0.00000000000E+00 0. -1.
          6    1    1    2  501    0  0.37971160234E+02 -0.10153526651E+02  0.57545634561E+02  0.18558125759E+03  0.17200000000E+03 0. -1.
         -6    1    1    2    0  503 -0.37971160234E+02  0.10153526651E+02 -0.10018850162E+04  0.10173015722E+04  0.17200000000E+03 0. -1.
</event>
<event>
 4    1  0.5701701E+000  0.1990077E+03  0.7818608E-02  0.1150579E+00
         21   -1    0    0  503  502  0.00000000000E+00  0.00000000000E+00  0.77985964776E+02  0.77985964776E+02  0.00000000000E+00 0.  1.
         21   -1    0    0  501  503 -0.00000000000E+00 -0.00000000000E+00 -0.88025054130E+03  0.88025054130E+03  0.00000000000E+00 0.  1.
          6    1    1    2  501    0  0.33408766396E+02  0.94360588122E+02 -0.71277213849E+03  0.74003255852E+03  0.17200000000E+03 0.  1.
         -6    1    1    2    0  502 -0.33408766396E+02 -0.94360588122E+02 -0.89492438033E+02  0.21820394755E+03  0.17200000000E+03 0.  1.
</event>
<event>
 4    1  0.5701701E+000  0.1824116E+03  0.7818608E-02  0.1165489E+00
         21   -1    0    0  501  502  0.00000000000E+00  0.00000000000E+00  0.35484516288E+02  0.35484516288E+02  0.00000000000E+00 0. -1.
         21   -1    0    0  502  503 -0.00000000000E+00 -0.00000000000E+00 -0.96525157360E+03  0.96525157360E+03  0.00000000000E+00 0. -1.
          6    1    1    2  501    0  0.43216460083E+02  0.42688729266E+02 -0.38035424864E+03  0.42183331363E+03  0.17200000000E+03 0. -1.
         -6    1    1    2    0  503 -0.43216460083E+02 -0.42688729266E+02 -0.54941280867E+03  0.57890277626E+03  0.17200000000E+03 0. -1.
</event>
<event>
 4    1  0.5701701E+000  0.2075484E+03  0.7818608E-02  0.1143522E+00
         21   -1    0    0  503  502  0.00000000000E+00  0.00000000000E+00  0.20923855533E+03  0.20923855533E+03  0.00000000000E+00 0.  1.
         21   -1    0    0  501  503 -0.00000000000E+00 -0.00000000000E+00 -0.42740358940E+03  0.42740358940E+03  0.00000000000E+00 0.  1.
          6    1    1    2  501    0 -0.25553800528E+01 -0.11612850150E+03 -0.33825588286E+03  0.39685438276E+03  0.17200000000E+03 0.  1.
         -6    1    1    2    0  502  0.25553800528E+01  0.11612850150E+03  0.12009084879E+03  0.23978776197E+03  0.17200000000E+03 0.  1.
</event>
<event>
 4    1  0.5701701E+000  0.1815028E+03  0.7818608E-02  0.1166357E+00
         21   -1    0    0  503  502  0.00000000000E+00  0.00000000000E+00  0.46267719336E+03  0.46267719336E+03  0.00000000000E+00 0.  1.
         21   -1    0    0  501  503 -0.00000000000E+00 -0.00000000000E+00 -0.71489172105E+02  0.71489172105E+02  0.00000000000E+00 0.  1.
          6    1    1    2  501    0 -0.54919893910E+02 -0.18522008180E+02  0.17864837354E+03  0.25467332193E+03  0.17200000000E+03 0.  1.
         -6    1    1    2    0  502  0.54919893910E+02  0.18522008180E+02  0.21253964772E+03  0.27949304354E+03  0.17200000000E+03 0.  1.
</event>
<event>
 4    1  0.5701701E+000  0.4741613E+03  0.7818608E-02  0.1020752E+00
         21   -1    0    0  503  502  0.00000000000E+00  0.00000000000E+00  0.81731220850E+03  0.81731220850E+03  0.00000000000E+00 0.  1.
         21   -1    0    0  501  503 -0.00000000000E+00 -0.00000000000E+00 -0.15686776498E+04  0.15686776498E+04  0.00000000000E+00 0. -1.
          6    1    1    2  501    0 -0.17207208231E+03  0.40698425013E+03 -0.14590377146E+04  0.15341512422E+04  0.17200000000E+03 0. -1.
         -6    1    1    2    0  502  0.17207208231E+03 -0.40698425013E+03  0.70767227333E+03  0.85183861606E+03  0.17200000000E+03 0.  1.
</event>
<event>
 4    1  0.5701701E+000  0.2235044E+03  0.7818608E-02  0.1131297E+00
         21   -1    0    0  501  502  0.00000000000E+00  0.00000000000E+00  0.12829076762E+03  0.12829076762E+03  0.00000000000E+00 0. -1.
         21   -1    0    0  502  503 -0.00000000000E+00 -0.00000000000E+00 -0.51575188979E+03  0.51575188979E+03  0.00000000000E+00 0. -1.
          6    1    1    2  501    0 -0.83601008749E+02  0.11567661627E+03 -0.34331856537E+02  0.22612581584E+03  0.17200000000E+03 0. -1.
         -6    1    1    2    0  503  0.83601008749E+02 -0.11567661627E+03 -0.35312926563E+03  0.41791684156E+03  0.17200000000E+03 0. -1.
</event>
<event>
 4    1  0.5701701E+000  0.1823851E+03  0.7818608E-02  0.1165514E+00
         21   -1    0    0  503  502  0.00000000000E+00  0.00000000000E+00  0.55924444913E+02  0.55924444913E+02  0.00000000000E+00 0.  1.
         21   -1    0    0  501  503 -0.00000000000E+00 -0.00000000000E+00 -0.68814432320E+03  0.68814432320E+03  0.00000000000E+00 0. -1.
          6    1    1    2  501    0 -0.49660665069E-01 -0.60665676569E+02 -0.45312485403E+03  0.48845312991E+03  0.17200000000E+03 0. -1.
         -6    1    1    2    0  502  0.49660665069E-01  0.60665676569E+02 -0.17909502426E+03  0.25561563820E+03  0.17200000000E+03 0. -1.
</event>
<event>
 4    1  0.5701701E+000  0.1895532E+03  0.7818608E-02  0.1158865E+00
         21   -1    0    0  501  502  0.00000000000E+00  0.00000000000E+00  0.30028135516E+03  0.30028135516E+03  0.00000000000E+00 0.  1.
         21   -1    0    0  502  503 -0.00000000000E+00 -0.00000000000E+00 -0.15008720729E+03  0.15008720729E+03  0.00000000000E+00 0.  1.
          6    1    1    2  501    0 -0.31228426533E+02  0.73288467063E+02 -0.26300381295E+02  0.19136907818E+03  0.17200000000E+03 0. -1.
         -6    1    1    2    0  503  0.31228426533E+02 -0.73288467063E+02  0.17649452917E+03  0.25899948427E+03  0.17200000000E+03 0. -1.
</event>
<event>
 4    1  0.5701701E+000  0.2258208E+03  0.7818608E-02  0.1129616E+00
         21   -1    0    0  501  502  0.00000000000E+00  0.00000000000E+00  0.22907026165E+03  0.22907026165E+03  0.00000000000E+00 0. -1.
         21   -1    0    0  502  503 -0.00000000000E+00 -0.00000000000E+00 -0.50110367829E+03  0.50110367829E+03  0.00000000000E+00 0.  1.
          6    1    1    2  501    0 -0.13569315881E+03 -0.54757632499E+02  0.13614963565E+03  0.26368874635E+03  0.17200000000E+03 0. -1.
         -6    1    1    2    0  503  0.13569315881E+03  0.54757632499E+02 -0.40818305229E+03  0.46648519359E+03  0.17200000000E+03 0.  1.
</event>
<event>
 4    1  0.5701701E+000  0.2070877E+03  0.7818608E-02  0.1143893E+00
         21   -1    0    0  501  502  0.00000000000E+00  0.00000000000E+00  0.22472893708E+02  0.22472893708E+02  0.00000000000E+00 0. -1.
         21   -1    0    0  502  503 -0.00000000000E+00 -0.00000000000E+00 -0.19284517854E+04  0.19284517854E+04  0.00000000000E+00 0. -1.
          6    1    1    2  501    0  0.11904988965E+02  0.11471532720E+03 -0.85330825241E+03  0.87807762110E+03  0.17200000000E+03 0. -1.
         -6    1    1    2    0  503 -0.11904988965E+02 -0.11471532720E+03 -0.10526706393E+04  0.10728470581E+04  0.17200000000E+03 0. -1.
</event>
<event>
 4    1  0.5701701E+000  0.2375686E+03  0.7818608E-02  0.1121423E+00
         21   -1    0    0  503  502  0.00000000000E+00  0.00000000000E+00  0.38075871470E+03  0.38075871470E+03  0.00000000000E+00 0. -1.
         21   -1    0    0  501  503 -0.00000000000E+00 -0.00000000000E+00 -0.16134719622E+03  0.16134719622E+03  0.00000000000E+00 0.  1.
          6    1    1    2  501    0 -0.15465950830E+03 -0.54178043912E+02  0.32412936300E+02  0.23976951931E+03  0.17200000000E+03 0.  1.
         -6    1    1    2    0  502  0.15465950830E+03  0.54178043912E+02  0.18699858218E+03  0.30233639160E+03  0.17200000000E+03 0. -1.
</event>
<event>
 4    1  0.5701701E+000  0.2024950E+03  0.7818608E-02  0.1147651E+00
         21   -1    0    0  503  502  0.00000000000E+00  0.00000000000E+00  0.54113688332E+03  0.54113688332E+03  0.00000000000E+00 0.  1.
         21   -1    0    0  501  503 -0.00000000000E+00 -0.00000000000E+00 -0.82541273935E+02  0.82541273935E+02  0.00000000000E+00 0. -1.
          6    1    1    2  501    0 -0.48299792638E+02 -0.95327576577E+02  0.14000935689E+03  0.24618455849E+03  0.17200000000E+03 0. -1.
         -6    1    1    2    0  502  0.48299792638E+02  0.95327576577E+02  0.31858625250E+03  0.37749359876E+03  0.17200000000E+03 0.  1.
</event>
<event>
 4    1  0.5701701E+000  0.1794897E+03  0.7818608E-02  0.1168298E+00
         21   -1    0    0  503  502  0.00000000000E+00  0.00000000000E+00  0.31022972720E+02  0.31022972720E+02  0.00000000000E+00 0.  1.
         21   -1    0    0  501  503 -0.00000000000E+00 -0.00000000000E+00 -0.13522591763E+04  0.13522591763E+04  0.00000000000E+00 0. -1.
          6    1    1    2  501    0  0.40419729747E+02 -0.31603933540E+02 -0.99378875379E+03  0.10098676400E+04  0.17200000000E+03 0. -1.
         -6    1    1    2    0  502 -0.40419729747E+02  0.31603933540E+02 -0.32744744977E+03  0.37341450900E+03  0.17200000000E+03 0.  1.
</event>
<event>
 4    1  0.5701701E+000  0.1899579E+03  0.7818608E-02  0.1158499E+00
         21   -1    0    0  501  502  0.00000000000E+00  0.00000000000E+00  0.12579784648E+03  0.12579784648E+03  0.00000000000E+00 0.  1.
         21   -1    0    0  502  503 -0.00000000000E+00 -0.00000000000E+00 -0.30288774162E+03  0.30288774162E+03  0.00000000000E+00 0.  1.
          6    1    1    2  501    0  0.77790583906E+02 -0.21180737006E+02 -0.39209453624E+02  0.19396231546E+03  0.17200000000E+03 0.  1.
         -6    1    1    2    0  503 -0.77790583906E+02  0.21180737006E+02 -0.13788044152E+03  0.23472327264E+03  0.17200000000E+03 0.  1.
</event>
<event>
 4    1  0.5701701E+000  0.2031477E+03  0.7818608E-02  0.1147110E+00
         21   -1    0    0  503  502  0.00000000000E+00  0.00000000000E+00  0.43995786340E+03  0.43995786340E+03  0.00000000000E+00 0. -1.
         21   -1    0    0  501  503 -0.00000000000E+00 -0.00000000000E+00 -0.18593221528E+03  0.18593221528E+03  0.00000000000E+00 0. -1.
          6    1    1    2  501    0  0.58584814022E+02  0.90845000926E+02 -0.93275476863E+02  0.22353816053E+03  0.17200000000E+03 0. -1.
         -6    1    1    2    0  502 -0.58584814022E+02 -0.90845000926E+02  0.34730112499E+03  0.40235191816E+03  0.17200000000E+03 0. -1.
</event>
<event>
 4    1  0.5701701E+000  0.1777545E+03  0.7818608E-02  0.1169994E+00
         21   -1    0    0  503  502  0.00000000000E+00  0.00000000000E+00  0.33309277802E+03  0.33309277802E+03  0.00000000000E+00 0.  1.
         21   -1    0    0  501  503 -0.00000000000E+00 -0.00000000000E+00 -0.16616259899E+03  0.16616259899E+03  0.00000000000E+00 0.  1.
          6    1    1    2  501    0  0.90069414158E+01  0.43949451687E+02 -0.80059618902E+02  0.19495184502E+03  0.17200000000E+03 0.  1.
         -6    1    1    2    0  502 -0.90069414158E+01 -0.43949451687E+02  0.24698979794E+03  0.30430353199E+03  0.17200000000E+03 0.  1.
</event>
<event>
 4    1  0.5701701E+000  0.2396895E+03  0.7818608E-02  0.1120000E+00
         21   -1    0    0  503  502  0.00000000000E+00  0.00000000000E+00  0.14567510203E+03  0.14567510203E+03  0.00000000000E+00 0. -1.
         21   -1    0    0  501  503 -0.00000000000E+00 -0.00000000000E+00 -0.41033745897E+03  0.41033745897E+03  0.00000000000E+00 0.  1.
          6    1    1    2  501    0 -0.15570032555E+03 -0.60203502392E+02 -0.18715803204E+03  0.30410390006E+03  0.17200000000E+03 0. -1.
         -6    1    1    2    0  502  0.15570032555E+03  0.60203502392E+02 -0.77504324899E+02  0.25190866094E+03  0.17200000000E+03 0. -1.
</event>
<event>
 4    1  0.5701701E+000  0.2540426E+03  0.7818608E-02  0.1110776E+00
         21   -1    0    0  501  502  0.00000000000E+00  0.00000000000E+00  0.11718838213E+04  0.11718838213E+04  0.00000000000E+00 0. -1.
         21   -1    0    0  502  503 -0.00000000000E+00 -0.00000000000E+00 -0.74965287074E+02  0.74965287074E+02  0.00000000000E+00 0.  1.
          6    1    1    2  501    0 -0.33716130181E+02 -0.18389366712E+03  0.86961089314E+03  0.90595847792E+03  0.17200000000E+03 0. -1.
         -6    1    1    2    0  503  0.33716130181E+02  0.18389366712E+03  0.22730764110E+03  0.34089063047E+03  0.17200000000E+03 0.  1.
</event>
<event>
 4    1  0.5701701E+000  0.2084851E+03  0.7818608E-02  0.1142771E+00
         21   -1    0    0  503  502  0.00000000000E+00  0.00000000000E+00  0.10265331425E+03  0.10265331425E+03  0.00000000000E+00 0.  1.
         21   -1    0    0  501  503 -0.00000000000E+00 -0.00000000000E+00 -0.43401622298E+03  0.43401622298E+03  0.00000000000E+00 0. -1.
          6    1    1    2  501    0 -0.11570049191E+03 -0.22257939312E+02 -0.12376456821E+03  0.24245347602E+03  0.17200000000E+03 0. -1.
         -6    1    1    2    0  502  0.11570049191E+03  0.22257939312E+02 -0.20759834051E+03  0.29421606121E+03  0.17200000000E+03 0.  1.
</event>
<event>
 4    1  0.5701701E+000  0.1849350E+03  0.7818608E-02  0.1163111E+00
         21   -1    0    0  501  502  0.00000000000E+00  0.00000000000E+00  0.99478353657E+03  0.99478353657E+03  0.00000000000E+00 0.  1.
         21   -1    0    0  502  503 -0.00000000000E+00 -0.00000000000E+00 -0.49585111899E+02  0.49585111899E+02  0.00000000000E+00 0. -1.
          6    1    1    2  501    0 -0.16301241344E+02 -0.65963776888E+02  0.76175959771E+03  0.78388687642E+03  0.17200000000E+03 0.  1.
         -6    1    1    2    0  503  0.16301241344E+02  0.65963776888E+02  0.18343882697E+03  0.26048177205E+03  0.17200000000E+03 0.  1.
</event>
<event>
 4    1  0.5701701E+000  0.2026384E+03  0.7818608E-02  0.1147532E+00
         21   -1    0    0  501  502  0.00000000000E+00  0.00000000000E+00  0.17689177425E+04  0.17689177425E+04  0.00000000000E+00 0.  1.
         21   -1    0    0  502  503 -0.00000000000E+00 -0.00000000000E+00 -0.31758196236E+02  0.31758196236E+02  0.00000000000E+00 0. -1.
          6    1    1    2  501    0  0.35275888480E+02  0.10116283042E+03  0.13355967332E+04  0.13508815420E+04  0.17200000000E+03 0.  1.
         -6    1    1    2    0  503 -0.35275888480E+02 -0.10116283042E+03  0.40156281302E+03  0.44979439677E+03  0.17200000000E+03 0. -1.
</event>
<event>
 4    1  0.5701701E+000  0.1809007E+03  0.7818608E-02  0.1166934E+00
         21   -1    0    0  503  502  0.00000000000E+00  0.00000000000E+00  0.24359964661E+03  0.24359964661E+03  0.00000000000E+00 0. -1.
         21   -1    0    0  501  503 -0.00000000000E+00 -0.00000000000E+00 -0.25271155013E+03  0.25271155013E+03  0.00000000000E+00 0. -1.
          6    1    1    2  501    0  0.35056924636E+02 -0.43727437229E+02 -0.17439437545E+03  0.25127370519E+03  0.17200000000E+03 0. -1.
         -6    1    1    2    0  502 -0.35056924636E+02  0.43727437229E+02  0.16528247194E+03  0.24503749154E+03  0.17200000000E+03 0. -1.
</event>
<event>
 4    1  0.5701701E+000  0.1756872E+03  0.7818608E-02  0.1172043E+00
         21   -1    0    0  501  502  0.00000000000E+00  0.00000000000E+00  0.18369525763E+02  0.18369525763E+02  0.00000000000E+00 0.  1.
         21   -1    0    0  502  503 -0.00000000000E+00 -0.00000000000E+00 -0.17140625498E+04  0.17140625498E+04  0.00000000000E+00 0.  1.
          6    1    1    2  501    0  0.13326804482E+01  0.35780014992E+02 -0.72624316283E+03  0.74719148622E+03  0.17200000000E+03 0.  1.
         -6    1    1    2    0  503 -0.13326804482E+01 -0.35780014992E+02 -0.96944986121E+03  0.98524058935E+03  0.17200000000E+03 0.  1.
</event>
<event>
 4    1  0.5701701E+000  0.1969771E+03  0.7818608E-02  0.1152315E+00
         21   -1    0    0  503  502  0.00000000000E+00  0.00000000000E+00  0.40217218759E+03  0.40217218759E+03  0.00000000000E+00 0.  1.
         21   -1    0    0  501  503 -0.00000000000E+00 -0.00000000000E+00 -0.15712751835E+03  0.15712751835E+03  0.00000000000E+00 0.  1.
          6    1    1    2  501    0  0.58653528897E+02 -0.75998249690E+02 -0.51221439449E+02  0.20352790046E+03  0.17200000000E+03 0.  1.
         -6    1    1    2    0  502 -0.58653528897E+02  0.75998249690E+02  0.29626610869E+03  0.35577180547E+03  0.17200000000E+03 0.  1.
</event>
<event>
 4    1  0.5701701E+000  0.2237691E+03  0.7818608E-02  0.1131104E+00
         21   -1    0    0  501  502  0.00000000000E+00  0.00000000000E+00  0.13897092424E+03  0.13897092424E+03  0.00000000000E+00 0.  1.
         21   -1    0    0  502  503 -0.00000000000E+00 -0.00000000000E+00 -0.36037176347E+03  0.36037176347E+03  0.00000000000E+00 0. -1.
          6    1    1    2  501    0 -0.85850912551E+02  0.11453483346E+03 -0.10743061131E+03  0.24822156133E+03  0.17200000000E+03 0.  1.
         -6    1    1    2    0  503  0.85850912551E+02 -0.11453483346E+03 -0.11397022792E+03  0.25112112638E+03  0.17200000000E+03 0. -1.
</event>
<event>
 4    1  0.5701701E+000  0.1943416E+03  0.7818608E-02  0.1154603E+00
         21   -1    0    0  501  502  0.00000000000E+00  0.00000000000E+00  0.63256101966E+02  0.63256101966E+02  0.00000000000E+00 0.  1.
         21   -1    0    0  502  503 -0.00000000000E+00 -0.00000000000E+00 -0.61190839412E+03  0.61190839412E+03  0.00000000000E+00 0.  1.
          6    1    1    2  501    0 -0.85042904277E+02 -0.30860552969E+02 -0.22176689023E+03  0.29487153626E+03  0.17200000000E+03 0.  1.
         -6    1    1    2    0  503  0.85042904277E+02  0.30860552969E+02 -0.32688540193E+03  0.38029295982E+03  0.17200000000E+03 0.  1.
</event>
<event>
 4    1  0.5701701E+000  0.1927049E+03  0.7818608E-02  0.1156044E+00
         21   -1    0    0  503  502  0.00000000000E+00  0.00000000000E+00  0.85469140403E+03  0.85469140403E+03  0.00000000000E+00 0. -1.
         21   -1    0    0  501  503 -0.00000000000E+00 -0.00000000000E+00 -0.48719864175E+02  0.48719864175E+02  0.00000000000E+00 0. -1.
          6    1    1    2  501    0  0.54751414802E+02 -0.67479291408E+02  0.25440638697E+03  0.31915165975E+03  0.17200000000E+03 0. -1.
         -6    1    1    2    0  502 -0.54751414802E+02  0.67479291408E+02  0.55156515288E+03  0.58425960845E+03  0.17200000000E+03 0. -1.
</event>
<event>
 4    1  0.5701701E+000  0.2510208E+03  0.7818608E-02  0.1112661E+00
         21   -1    0    0  501  502  0.00000000000E+00  0.00000000000E+00  0.31358553319E+03  0.31358553319E+03  0.00000000000E+00 0. -1.
         21   -1    0    0  502  503 -0.00000000000E+00 -0.00000000000E+00 -0.24886901679E+03  0.24886901679E+03  0.00000000000E+00 0. -1.
          6    1    1    2  501    0 -0.18005744777E+03  0.31729477487E+02  0.15577598289E+03  0.29542782720E+03  0.17200000000E+03 0. -1.
         -6    1    1    2    0  503  0.18005744777E+03 -0.31729477487E+02 -0.91059466497E+02  0.26702672278E+03  0.17200000000E+03 0. -1.
</event>
<event>
 4    1  0.5701701E+000  0.2399639E+03  0.7818608E-02  0.1119817E+00
         21   -1    0    0  503  502  0.00000000000E+00  0.00000000000E+00  0.71756933262E+02  0.71756933262E+02  0.00000000000E+00 0. -1.
         21   -1    0    0  501  503 -0.00000000000E+00 -0.00000000000E+00 -0.11259576259E+04  0.11259576259E+04  0.00000000000E+00 0. -1.
          6    1    1    2  501    0  0.10288930189E+03  0.13195638941E+03 -0.84809069867E+03  0.88138557415E+03  0.17200000000E+03 0. -1.
         -6    1    1    2    0  502 -0.10288930189E+03 -0.13195638941E+03 -0.20610999399E+03  0.31632898504E+03  0.17200000000E+03 0. -1.
</event>
<event>
 4    1  0.5701701E+000  0.2378775E+03  0.7818608E-02  0.1121215E+00
         21   -1    0    0  501  502  0.00000000000E+00  0.00000000000E+00  0.75015309803E+02  0.75015309803E+02  0.00000000000E+00 0. -1.
         21   -1    0    0  502  503 -0.00000000000E+00 -0.00000000000E+00 -0.89117963492E+03  0.89117963492E+03  0.00000000000E+00 0. -1.
          6    1    1    2  501    0  0.16063377903E+03  0.34619554544E+02 -0.21876669266E+03  0.32317888288E+03  0.17200000000E+03 0. -1.
         -6    1    1    2    0  503 -0.16063377903E+03 -0.34619554544E+02 -0.59739763246E+03  0.64301606185E+03  0.17200000000E+03 0. -1.
</event>
<event>
 4    1  0.5701701E+000  0.1923538E+03  0.7818608E-02  0.1156355E+00
         21   -1    0    0  503  502  0.00000000000E+00  0.00000000000E+00  0.75574129741E+03  0.75574129741E+03  0.00000000000E+00 0. -1.
         21   -1    0    0  501  503 -0.00000000000E+00 -0.00000000000E+00 -0.10133586633E+03  0.10133586633E+03  0.00000000000E+00 0. -1.
          6    1    1    2  501    0  0.86054479598E+02 -0.32587719448E+01  0.19111025366E+02  0.19330086483E+03  0.17200000000E+03 0. -1.
         -6    1    1    2    0  502 -0.86054479598E+02  0.32587719448E+01  0.63529440571E+03  0.66377629890E+03  0.17200000000E+03 0. -1.
</event>
<event>
 4    1  0.5701701E+000  0.1776822E+03  0.7818608E-02  0.1170065E+00
         21   -1    0    0  501  502  0.00000000000E+00  0.00000000000E+00  0.12467786297E+03  0.12467786297E+03  0.00000000000E+00 0. -1.
         21   -1    0    0  502  503 -0.00000000000E+00 -0.00000000000E+00 -0.25338733392E+03  0.25338733392E+03  0.00000000000E+00 0. -1.
          6    1    1    2  501    0  0.31381418732E+02  0.31656909379E+02 -0.59499872334E+02  0.18737979657E+03  0.17200000000E+03 0.  1.
         -6    1    1    2    0  503 -0.31381418732E+02 -0.31656909379E+02 -0.69209598616E+02  0.19068540032E+03  0.17200000000E+03 0.  1.
</event>
<event>
 4    1  0.5701701E+000  0.1973295E+03  0.7818608E-02  0.1152012E+00
         21   -1    0    0  503  502  0.00000000000E+00  0.00000000000E+00  0.71243943101E+02  0.71243943101E+02  0.00000000000E+00 0.  1.
         21   -1    0    0  501  503 -0.00000000000E+00 -0.00000000000E+00 -0.54772720253E+03  0.54772720253E+03  0.00000000000E+00 0.  1.
          6    1    1    2  501    0  0.58025206780E+02  0.77382323506E+02 -0.25254041226E+03  0.32049275879E+03  0.17200000000E+03 0.  1.
         -6    1    1    2    0  502 -0.58025206780E+02 -0.77382323506E+02 -0.22394284717E+03  0.29847838684E+03  0.17200000000E+03 0.  1.
</event>
<event>
 4    1  0.5701701E+000  0.1727144E+03  0.7818608E-02  0.1175046E+00
         21   -1    0    0  503  502  0.00000000000E+00  0.00000000000E+00  0.82480074071E+02  0.82480074071E+02  0.00000000000E+00 0. -1.
         21   -1    0    0  501  503 -0.00000000000E+00 -0.00000000000E+00 -0.10869340816E+04  0.10869340816E+04  0.00000000000E+00 0. -1.
          6    1    1    2  501    0  0.14295270012E+02 -0.64725061050E+01 -0.97985084307E+03  0.99495624162E+03  0.17200000000E+03 0. -1.
         -6    1    1    2    0  502 -0.14295270012E+02  0.64725061050E+01 -0.24603164483E+02  0.17445791407E+03  0.17200000000E+03 0. -1.
</event>
<event>
 4    1  0.5701701E+000  0.2090060E+03  0.7818608E-02  0.1142356E+00
         21   -1    0    0  501  502  0.00000000000E+00  0.00000000000E+00  0.38705797028E+03  0.38705797028E+03  0.00000000000E+00 0.  1.
         21   -1    0    0  502  503 -0.00000000000E+00 -0.00000000000E+00 -0.12069702539E+03  0.12069702539E+03  0.00000000000E+00 0.  1.
          6    1    1    2  501    0  0.98102703244E+02 -0.66898168444E+02  0.19787109492E+03  0.28781326504E+03  0.17200000000E+03 0.  1.
         -6    1    1    2    0  503 -0.98102703244E+02  0.66898168444E+02  0.68489849971E+02  0.21994173063E+03  0.17200000000E+03 0.  1.
</event>
<event>
 4    1  0.5701701E+000  0.2435299E+03  0.7818608E-02  0.1117463E+00
         21   -1    0    0  503  502  0.00000000000E+00  0.00000000000E+00  0.41574561597E+03  0.41574561597E+03  0.00000000000E+00 0.  1.
         21   -1    0    0  501  503 -0.00000000000E+00 -0.00000000000E+00 -0.17667430912E+03  0.17667430912E+03  0.00000000000E+00 0. -1.
          6    1    1    2  501    0 -0.36400431450E+02  0.16851656184E+03 -0.10450384005E+02  0.24375404314E+03  0.17200000000E+03 0. -1.
         -6    1    1    2    0  502  0.36400431450E+02 -0.16851656184E+03  0.24952169086E+03  0.34866588194E+03  0.17200000000E+03 0.  1.
</event>
<event>
 4    1  0.5701701E+000  0.1822073E+03  0.7818608E-02  0.1165684E+00
         21   -1    0    0  503  502  0.00000000000E+00  0.00000000000E+00  0.65483813621E+02  0.65483813621E+02  0.00000000000E+00 0.  1.
         21   -1    0    0  501  503 -0.00000000000E+00 -0.00000000000E+00 -0.65558649155E+03  0.65558649155E+03  0.00000000000E+00 0.  1.
          6    1    1    2  501    0  0.53435754833E+02  0.27570458657E+02 -0.46669974087E+03  0.50100714387E+03  0.17200000000E+03 0.  1.
         -6    1    1    2    0  502 -0.53435754833E+02 -0.27570458657E+02 -0.12340293706E+03  0.22006316130E+03  0.17200000000E+03 0.  1.
</event>
<event>
 4    1  0.5701701E+000  0.1736149E+03  0.7818608E-02  0.1174130E+00
         21   -1    0    0  501  502  0.00000000000E+00  0.00000000000E+00  0.34657026038E+03  0.34657026038E+03  0.00000000000E+00 0. -1.
         21   -1    0    0  502  503 -0.00000000000E+00 -0.00000000000E+00 -0.14352460577E+03  0.14352460577E+03  0.00000000000E+00 0. -1.
          6    1    1    2  501    0 -0.16754572538E+02  0.16656025787E+02  0.25534209378E+03  0.30877455166E+03  0.17200000000E+03 0. -1.
         -6    1    1    2    0  503  0.16754572538E+02 -0.16656025787E+02 -0.52296439169E+02  0.18132031449E+03  0.17200000000E+03 0. -1.
</event>
<event>
 4    1  0.5701701E+000  0.1813917E+03  0.7818608E-02  0.1166463E+00
         21   -1    0    0  501  502  0.00000000000E+00  0.00000000000E+00  0.28834703349E+02  0.28834703349E+02  0.00000000000E+00 0.  1.
         21   -1    0    0  502  503 -0.00000000000E+00 -0.00000000000E+00 -0.11814900810E+04  0.11814900810E+04  0.00000000000E+00 0. -1.
          6    1    1    2  501    0  0.34382587793E+02 -0.46225204533E+02 -0.68823517732E+03  0.71173772639E+03  0.17200000000E+03 0. -1.
         -6    1    1    2    0  503 -0.34382587793E+02  0.46225204533E+02 -0.46442020029E+03  0.49858705791E+03  0.17200000000E+03 0.  1.
</event>
<event>
 4    1  0.5701701E+000  0.1729028E+03  0.7818608E-02  0.1174854E+00
         21   -1    0    0  503  502  0.00000000000E+00  0.00000000000E+00  0.23959988652E+04  0.23959988652E+04  0.00000000000E+00 0.  1.
         21   -1    0    0  501  503 -0.00000000000E+00 -0.00000000000E+00 -0.20006490104E+02  0.20006490104E+02  0.00000000000E+00 0.  1.
          6    1    1    2  501    0 -0.15787861520E+02 -0.78819190790E+01  0.44692629505E+03  0.47920610850E+03  0.17200000000E+03 0. -1.
         -6    1    1    2    0  502  0.15787861520E+02  0.78819190790E+01  0.19290660800E+04  0.19367992468E+04  0.17200000000E+03 0. -1.
</event>
<event>
 4    1  0.5701701E+000  0.2668901E+03  0.7818608E-02  0.1103073E+00
         21   -1    0    0  501  502  0.00000000000E+00  0.00000000000E+00  0.56681437266E+03  0.56681437266E+03  0.00000000000E+00 0.  1.
         21   -1    0    0  502  503 -0.00000000000E+00 -0.00000000000E+00 -0.20698139418E+03  0.20698139418E+03  0.00000000000E+00 0.  1.
          6    1    1    2  501    0  0.17717114014E+03 -0.10127551164E+03  0.42241671762E+03  0.49966611400E+03  0.17200000000E+03 0.  1.
         -6    1    1    2    0  503 -0.17717114014E+03  0.10127551164E+03 -0.62583739136E+02  0.27412965283E+03  0.17200000000E+03 0.  1.
</event>
<event>
 4    1  0.5701701E+000  0.1957734E+03  0.7818608E-02  0.1153355E+00
         21   -1    0    0  503  502  0.00000000000E+00  0.00000000000E+00  0.29856706918E+03  0.29856706918E+03  0.00000000000E+00 0.  1.
         21   -1    0    0  501  503 -0.00000000000E+00 -0.00000000000E+00 -0.13500040019E+03  0.13500040019E+03  0.00000000000E+00 0. -1.
          6    1    1    2  501    0 -0.49881098937E+02 -0.79089294728E+02  0.33742710027E+02  0.19866003889E+03  0.17200000000E+03 0. -1.
         -6    1    1    2    0  502  0.49881098937E+02  0.79089294728E+02  0.12982395896E+03  0.23490743048E+03  0.17200000000E+03 0.  1.
</event>
<event>
 4    1  0.5701701E+000  0.2461353E+03  0.7818608E-02  0.1115772E+00
         21   -1    0    0  503  502  0.00000000000E+00  0.00000000000E+00  0.83687652671E+03  0.83687652671E+03  0.00000000000E+00 0.  1.
         21   -1    0    0  501  503 -0.00000000000E+00 -0.00000000000E+00 -0.72780892111E+02  0.72780892111E+02  0.00000000000E+00 0.  1.
          6    1    1    2  501    0 -0.21196370777E+02 -0.17478360587E+03  0.34877159140E+03  0.42687728680E+03  0.17200000000E+03 0.  1.
         -6    1    1    2    0  502  0.21196370777E+02  0.17478360587E+03  0.41532404319E+03  0.48278013202E+03  0.17200000000E+03 0.  1.
</event>
<event>
 4    1  0.5701701E+000  0.2404748E+03  0.7818608E-02  0.1119477E+00
         21   -1    0    0  503  502  0.00000000000E+00  0.00000000000E+00  0.29388046099E+04  0.29388046099E+04  0.00000000000E+00 0.  1.
         21   -1    0    0  501  503 -0.00000000000E+00 -0.00000000000E+00 -0.52758646707E+02  0.52758646707E+02  0.00000000000E+00 0.  1.
          6    1    1    2  501    0 -0.45584171469E+02  0.16175980654E+03  0.25858577327E+03  0.35312144347E+03  0.17200000000E+03 0.  1.
         -6    1    1    2    0  502  0.45584171469E+02 -0.16175980654E+03  0.26274601900E+04  0.26384418132E+04  0.17200000000E+03 0.  1.
</event>
<event>
 4    1  0.5701701E+000  0.2031445E+03  0.7818608E-02  0.1147113E+00
         21   -1    0    0  503  502  0.00000000000E+00  0.00000000000E+00  0.20520712762E+03  0.20520712762E+03  0.00000000000E+00 0. -1.
         21   -1    0    0  501  503 -0.00000000000E+00 -0.00000000000E+00 -0.23281525848E+03  0.23281525848E+03  0.00000000000E+00 0. -1.
          6    1    1    2  501    0  0.85311286586E+01 -0.10775384764E+03 -0.94634966260E+02  0.22410588720E+03  0.17200000000E+03 0. -1.
         -6    1    1    2    0  502 -0.85311286586E+01  0.10775384764E+03  0.67026835399E+02  0.21391649890E+03  0.17200000000E+03 0. -1.
</event>
<event>
 4    1  0.5701701E+000  0.1804395E+03  0.7818608E-02  0.1167378E+00
         21   -1    0    0  501  502  0.00000000000E+00  0.00000000000E+00  0.72351780758E+02  0.72351780758E+02  0.00000000000E+00 0. -1.
         21   -1    0    0  502  503 -0.00000000000E+00 -0.00000000000E+00 -0.45796556364E+03  0.45796556364E+03  0.00000000000E+00 0. -1.
          6    1    1    2  501    0 -0.45453792133E+02  0.30138943561E+02 -0.15783981512E+03  0.23973278953E+03  0.17200000000E+03 0.  1.
         -6    1    1    2    0  503  0.45453792133E+02 -0.30138943561E+02 -0.22777396777E+03  0.29058455487E+03  0.17200000000E+03 0.  1.
</event>
<event>
 4    1  0.5701701E+000  0.1972280E+03  0.7818608E-02  0.1152099E+00
         21   -1    0    0  501  502  0.00000000000E+00  0.00000000000E+00  0.14998588146E+03  0.14998588146E+03  0.00000000000E+00 0.  1.
         21   -1    0    0  502  503 -0.00000000000E+00 -0.00000000000E+00 -0.37867925582E+03  0.37867925582E+03  0.00000000000E+00 0.  1.
          6    1    1    2  501    0  0.24688806241E+02 -0.93302402426E+02 -0.26273098120E+03  0.32852160346E+03  0.17200000000E+03 0.  1.
         -6    1    1    2    0  503 -0.24688806241E+02  0.93302402426E+02  0.34037606850E+02  0.20014353383E+03  0.17200000000E+03 0.  1.
</event>
<event>
 4    1  0.5701701E+000  0.1905637E+03  0.7818608E-02  0.1157954E+00
         21   -1    0    0  503  502  0.00000000000E+00  0.00000000000E+00  0.54894228682E+03  0.54894228682E+03  0.00000000000E+00 0.  1.
         21   -1    0    0  501  503 -0.00000000000E+00 -0.00000000000E+00 -0.80980744073E+02  0.80980744073E+02  0.00000000000E+00 0.  1.
          6    1    1    2  501    0 -0.38516554488E+02 -0.72436226119E+02  0.99210302107E+02  0.21484230465E+03  0.17200000000E+03 0.  1.
         -6    1    1    2    0  502  0.38516554488E+02  0.72436226119E+02  0.36875124064E+03  0.41508072625E+03  0.17200000000E+03 0.  1.
</event>
<event>
 4    1  0.5701701E+000  0.1749625E+03  0.7818608E-02  0.1172769E+00
         21   -1    0    0  501  502  0.00000000000E+00  0.00000000000E+00  0.49169952878E+03  0.49169952878E+03  0.00000000000E+00 0. -1.
         21   -1    0    0  502  503 -0.00000000000E+00 -0.00000000000E+00 -0.72258094536E+02  0.72258094536E+02  0.00000000000E+00 0. -1.
          6    1    1    2  501    0 -0.31578017696E+02  0.55405346510E+01  0.31462451171E+03  0.36000062791E+03  0.17200000000E+03 0. -1.
         -6    1    1    2    0  503  0.31578017696E+02 -0.55405346510E+01  0.10481692253E+03  0.20395699541E+03  0.17200000000E+03 0. -1.
</event>
<event>
 4    1  0.5701701E+000  0.1871942E+03  0.7818608E-02  0.1161017E+00
         21   -1    0    0  503  502  0.00000000000E+00  0.00000000000E+00  0.10232860443E+04  0.10232860443E+04  0.00000000000E+00 0.  1.
         21   -1    0    0  501  503 -0.00000000000E+00 -0.00000000000E+00 -0.53907286013E+02  0.53907286013E+02  0.00000000000E+00 0.  1.
          6    1    1    2  501    0  0.81916780949E+01  0.73420369224E+02  0.15940342580E+03  0.24586806699E+03  0.17200000000E+03 0.  1.
         -6    1    1    2    0  502 -0.81916780949E+01 -0.73420369224E+02  0.80997533248E+03  0.83132526332E+03  0.17200000000E+03 0.  1.
</event>
<event>
 4    1  0.5701701E+000  0.1731608E+03  0.7818608E-02  0.1174591E+00
         21   -1    0    0  501  502  0.00000000000E+00  0.00000000000E+00  0.77252834064E+03  0.77252834064E+03  0.00000000000E+00 0.  1.
         21   -1    0    0  502  503 -0.00000000000E+00 -0.00000000000E+00 -0.44729521858E+02  0.44729521858E+02  0.00000000000E+00 0.  1.
          6    1    1    2  501    0  0.19464607046E+02  0.46692569877E+01  0.51250666718E+03  0.54096927528E+03  0.17200000000E+03 0.  1.
         -6    1    1    2    0  503 -0.19464607046E+02 -0.46692569877E+01  0.21529215160E+03  0.27628858722E+03  0.17200000000E+03 0.  1.
</event>
<event>
 4    1  0.5701701E+000  0.2354226E+03  0.7818608E-02  0.1122880E+00
         21   -1    0    0  503  502  0.00000000000E+00  0.00000000000E+00  0.30638519594E+03  0.30638519594E+03  0.00000000000E+00 0. -1.
         21   -1    0    0  501  503 -0.00000000000E+00 -0.00000000000E+00 -0.22513406275E+03  0.22513406275E+03  0.00000000000E+00 0. -1.
          6    1    1    2  501    0 -0.12698894140E+02 -0.16024517606E+03 -0.77180513540E+02  0.24775110501E+03  0.17200000000E+03 0. -1.
         -6    1    1    2    0  502  0.12698894140E+02  0.16024517606E+03  0.15843164672E+03  0.28376815368E+03  0.17200000000E+03 0. -1.
</event>
<event>
 4    1  0.5701701E+000  0.3586997E+03  0.7818608E-02  0.1059100E+00
         21   -1    0    0  501  502  0.00000000000E+00  0.00000000000E+00  0.38091457853E+03  0.38091457853E+03  0.00000000000E+00 0. -1.
         21   -1    0    0  502  503 -0.00000000000E+00 -0.00000000000E+00 -0.35836041270E+03  0.35836041270E+03  0.00000000000E+00 0. -1.
          6    1    1    2  501    0  0.27212333979E+03 -0.15820997191E+03  0.99857563653E+02  0.37233995258E+03  0.17200000000E+03 0. -1.
         -6    1    1    2    0  503 -0.27212333979E+03  0.15820997191E+03 -0.77303397824E+02  0.36693503864E+03  0.17200000000E+03 0. -1.
</event>
<event>
 4    1  0.5701701E+000  0.2678054E+03  0.7818608E-02  0.1102542E+00
         21   -1    0    0  501  502  0.00000000000E+00  0.00000000000E+00  0.13009914546E+04  0.13009914546E+04  0.00000000000E+00 0.  1.
         21   -1    0    0  502  503 -0.00000000000E+00 -0.00000000000E+00 -0.96718589624E+02  0.96718589624E+02  0.00000000000E+00 0. -1.
          6    1    1    2  501    0  0.87215856192E+02  0.18582018317E+03  0.10604206617E+04  0.10937146455E+04  0.17200000000E+03 0.  1.
         -6    1    1    2    0  503 -0.87215856192E+02 -0.18582018317E+03  0.14385220325E+03  0.30399539869E+03  0.17200000000E+03 0. -1.
</event>
<event>
 4    1  0.5701701E+000  0.2362070E+03  0.7818608E-02  0.1122346E+00
         21   -1    0    0  501  502  0.00000000000E+00  0.00000000000E+00  0.51299955564E+02  0.51299955564E+02  0.00000000000E+00 0. -1.
         21   -1    0    0  502  503 -0.00000000000E+00 -0.00000000000E+00 -0.11962932166E+04  0.11962932166E+04  0.00000000000E+00 0.  1.
          6    1    1    2  501    0  0.13661324222E+03  0.86871089525E+02 -0.38446625050E+03  0.45122950027E+03  0.17200000000E+03 0. -1.
         -6    1    1    2    0  503 -0.13661324222E+03 -0.86871089525E+02 -0.76052701050E+03  0.79636367185E+03  0.17200000000E+03 0.  1.
</event>
<event>
 4    1  0.5701701E+000  0.1856636E+03  0.7818608E-02  0.1162432E+00
         21   -1    0    0  503  502  0.00000000000E+00  0.00000000000E+00  0.14964326700E+03  0.14964326700E+03  0.00000000000E+00 0. -1.
         21   -1    0    0  501  503 -0.00000000000E+00 -0.00000000000E+00 -0.25063970870E+03  0.25063970870E+03  0.00000000000E+00 0. -1.
          6    1    1    2  501    0 -0.68662684996E+02  0.13130009968E+02  0.64401029612E+01  0.18577523085E+03  0.17200000000E+03 0.  1.
         -6    1    1    2    0  502  0.68662684996E+02 -0.13130009968E+02 -0.10743654465E+03  0.21450774485E+03  0.17200000000E+03 0.  1.
</event>
<event>
 4    1  0.5701701E+000  0.1924469E+03  0.7818608E-02  0.1156273E+00
         21   -1    0    0  503  502  0.00000000000E+00  0.00000000000E+00  0.70236134264E+03  0.70236134264E+03  0.00000000000E+00 0. -1.
         21   -1    0    0  501  503 -0.00000000000E+00 -0.00000000000E+00 -0.95870208303E+02  0.95870208303E+02  0.00000000000E+00 0. -1.
          6    1    1    2  501    0 -0.84748135522E+02  0.16418447290E+02  0.35516182562E+02  0.19569673250E+03  0.17200000000E+03 0. -1.
         -6    1    1    2    0  502  0.84748135522E+02 -0.16418447290E+02  0.57097495178E+03  0.60253481845E+03  0.17200000000E+03 0. -1.
</event>
